name,formula,elements,density,color,crystal_system,dna
Arsenoustalecite,Cu6Cu6(As2Te2)Se13,"{""Cu"": 12.0, ""As"": 2.0, ""Te"": 2.0, ""Se"": 13.0}",2194.12,#FFFFFF,cubic,"{""system"": ""cubic"", ""scale"": [1.0, 1.0, 1.0], ""optical"": {""transparent"": 1, ""refraction"": 1.5, ""birefringence"": 0.0}}"
Arsenovanmeersscheite,U(UO2)3(AsO4)2(OH)6·4H2O,"{""U"": 4.0, ""O"": 24.0, ""As"": 2.0, ""H"": 14.0}",1500.07,#FFFFFF,orthorhombic,"{""system"": ""orthorhombic"", ""scale"": [0.8, 1.0, 1.2], ""optical"": {""transparent"": 1, ""refraction"": 1.5, ""birefringence"": 0.01}}"
Arsenowagnerite,Mg2(AsO4)F,"{""Mg"": 2.0, ""As"": 1.0, ""O"": 4.0, ""F"": 1.0}",206.54,#FFFFFF,monoclinic,"{""system"": ""monoclinic"", ""scale"": [0.7, 1.0, 1.3], ""optical"": {""transparent"": 1, ""refraction"": 1.5, ""birefringence"": 0.01}}"
Arsentsumebite,Pb2Cu(AsO4)(SO4)(OH),"{""Pb"": 2.0, ""Cu"": 1.0, ""As"": 1.0, ""O"": 9.0, ""S"": 1.0, ""H"": 1.0}",729.94,#FFFFFF,monoclinic,"{""system"": ""monoclinic"", ""scale"": [0.7, 1.0, 1.3], ""optical"": {""transparent"": 1, ""refraction"": 1.5, ""birefringence"": 0.01}}"
Arsenudinaite,NaMg4(AsO4)3,"{""Na"": 1.0, ""Mg"": 4.0, ""As"": 3.0, ""O"": 12.0}",536.99,#FFFFFF,tetragonal,"{""system"": ""tetragonal"", ""scale"": [1.0, 1.0, 1.4], ""optical"": {""transparent"": 1, ""refraction"": 1.5, ""birefringence"": 0.01}}"
Arsenuranospathite,Al(UO2)2(AsO4)2F·20H2O,"{""Al"": 1.0, ""U"": 2.0, ""O"": 32.0, ""As"": 2.0, ""F"": 1.0, ""H"": 40.0}",1224.2,#FFFFFF,tetragonal,"{""system"": ""tetragonal"", ""scale"": [1.0, 1.0, 1.4], ""optical"": {""transparent"": 1, ""refraction"": 1.5, ""birefringence"": 0.01}}"
Arsenuranylite,Ca(UO2)4(AsO4)2(OH)4·6H2O,"{""Ca"": 1.0, ""U"": 4.0, ""O"": 26.0, ""As"": 2.0, ""H"": 16.0}",1574.17,#FFFFFF,orthorhombic,"{""system"": ""orthorhombic"", ""scale"": [0.8, 1.0, 1.2], ""optical"": {""transparent"": 1, ""refraction"": 1.5, ""birefringence"": 0.01}}"
Arsiccioite,AgHg2TlAs2S6,"{""Ag"": 1.0, ""Hg"": 2.0, ""Tl"": 1.0, ""As"": 2.0, ""S"": 6.0}",1055.63,#FFD700,tetragonal,"{""system"": ""tetragonal"", ""scale"": [1.0, 1.0, 1.4], ""optical"": {""transparent"": 0, ""refraction"": 0.0, ""birefringence"": 0.0}}"
Arsmirandite,Na18Cu12Fe3+O8(AsO4)8Cl5,"{""Na"": 18.0, ""Cu"": 12.0, ""Fe"": 1.0, ""O"": 40.0, ""As"": 8.0, ""Cl"": 5.0}",2648.88,#556B2F,monoclinic,"{""system"": ""monoclinic"", ""scale"": [0.7, 1.0, 1.3], ""optical"": {""transparent"": 0, ""refraction"": 0.0, ""birefringence"": 0.0}}"
Arthurite,CuFe3+2(AsO4)2(OH)2·4H2O,"{""Cu"": 1.0, ""Fe"": 2.0, ""As"": 2.0, ""O"": 14.0, ""H"": 10.0}",559.17,#556B2F,monoclinic,"{""system"": ""monoclinic"", ""scale"": [0.7, 1.0, 1.3], ""optical"": {""transparent"": 0, ""refraction"": 0.0, ""birefringence"": 0.0}}"
Artinite,Mg2(CO3)(OH)2·3H2O,"{""Mg"": 2.0, ""C"": 1.0, ""O"": 8.0, ""H"": 8.0}",196.69,#FFFFFF,monoclinic,"{""system"": ""monoclinic"", ""scale"": [0.7, 1.0, 1.3], ""optical"": {""transparent"": 1, ""refraction"": 1.5, ""birefringence"": 0.01}}"
Artroeite,PbAlF3(OH)2,"{""Pb"": 1.0, ""Al"": 1.0, ""F"": 3.0, ""O"": 2.0, ""H"": 2.0}",325.2,#FFFFFF,triclinic,"{""system"": ""triclinic"", ""scale"": [0.7, 1.0, 1.3], ""optical"": {""transparent"": 1, ""refraction"": 1.5, ""birefringence"": 0.01}}"
Arupite,Ni3(PO4)2·8H2O,"{""Ni"": 3.0, ""P"": 2.0, ""O"": 16.0, ""H"": 16.0}",510.14,#FFFFFF,monoclinic,"{""system"": ""monoclinic"", ""scale"": [0.7, 1.0, 1.3], ""optical"": {""transparent"": 1, ""refraction"": 1.5, ""birefringence"": 0.01}}"
Arzamastsevite,K6Al5Si6O20(OH)4Cl,"{""K"": 6.0, ""Al"": 5.0, ""Si"": 6.0, ""O"": 24.0, ""H"": 4.0, ""Cl"": 1.0}",961.52,#FFFFFF,tetragonal,"{""system"": ""tetragonal"", ""scale"": [1.0, 1.0, 1.4], ""optical"": {""transparent"": 1, ""refraction"": 1.5, ""birefringence"": 0.01}}"
Arzrunite,Pb2Cu4(SO4)(OH)4Cl6·2H2O,"{""Pb"": 2.0, ""Cu"": 4.0, ""S"": 1.0, ""O"": 10.0, ""H"": 8.0, ""Cl"": 6.0}",1081.42,#FFFFFF,,"{""system"": """", ""scale"": [1.0, 1.0, 1.0], ""optical"": {""transparent"": 1, ""refraction"": 1.5, ""birefringence"": 0.01}}"
Asagiite,NiCu4(SO4)2(OH)6·6H2O,"{""Ni"": 1.0, ""Cu"": 4.0, ""S"": 2.0, ""O"": 20.0, ""H"": 18.0}",715.15,#FFFFFF,monoclinic,"{""system"": ""monoclinic"", ""scale"": [0.7, 1.0, 1.3], ""optical"": {""transparent"": 1, ""refraction"": 1.5, ""birefringence"": 0.01}}"
Asbecasite,Ca3TiAs6Be2Si2O20,"{""Ca"": 3.0, ""Ti"": 1.0, ""As"": 6.0, ""Be"": 2.0, ""Si"": 2.0, ""O"": 20.0}",1011.83,#FFFFFF,hexagonal,"{""system"": ""hexagonal"", ""scale"": [1.0, 1.0, 1.6], ""optical"": {""transparent"": 1, ""refraction"": 1.5, ""birefringence"": 0.01}}"
Asgruvanite-(Ce),Ce16Ca5Al(SiO4)6(AsO3)8(CO3)2Cl4F3(OH)2,"{""Ce"": 16.0, ""Ca"": 5.0, ""Al"": 1.0, ""Si"": 6.0, ""O"": 56.0, ""As"": 8.0, ""C"": 2.0, ""Cl"": 4.0, ""F"": 3.0, ""H"": 2.0}",4358.04,#FFFFFF,hexagonal,"{""system"": ""hexagonal"", ""scale"": [1.0, 1.0, 1.6], ""optical"": {""transparent"": 1, ""refraction"": 1.5, ""birefringence"": 0.01}}"
Ashburtonite,HCu4Pb4Si4O12(HCO3)4(OH)4Cl,"{""H"": 9.0, ""Cu"": 4.0, ""Pb"": 4.0, ""Si"": 4.0, ""O"": 28.0, ""C"": 4.0, ""Cl"": 1.0}",1735.92,#FFFFFF,tetragonal,"{""system"": ""tetragonal"", ""scale"": [1.0, 1.0, 1.4], ""optical"": {""transparent"": 1, ""refraction"": 1.5, ""birefringence"": 0.01}}"
Ashcroftine-(Y),K5Na5Y12Si28O70(OH)2(CO3)8·8H2O,"{""K"": 5.0, ""Na"": 5.0, ""Y"": 12.0, ""Si"": 28.0, ""O"": 104.0, ""H"": 18.0, ""C"": 8.0}",3942.11,#FFFFFF,tetragonal,"{""system"": ""tetragonal"", ""scale"": [1.0, 1.0, 1.4], ""optical"": {""transparent"": 1, ""refraction"": 1.5, ""birefringence"": 0.01}}"
Asimowite,Fe2SiO4,"{""Fe"": 2.0, ""Si"": 1.0, ""O"": 4.0}",203.79,#8B4513,orthorhombic,"{""system"": ""orthorhombic"", ""scale"": [0.8, 1.0, 1.2], ""optical"": {""transparent"": 0, ""refraction"": 0.0, ""birefringence"": 0.0}}"
Asisite,Pb7SiO8Cl2,"{""Pb"": 7.0, ""Si"": 1.0, ""O"": 8.0, ""Cl"": 2.0}",1677.39,#FFFFFF,tetragonal,"{""system"": ""tetragonal"", ""scale"": [1.0, 1.0, 1.4], ""optical"": {""transparent"": 1, ""refraction"": 1.5, ""birefringence"": 0.01}}"
Aspidolite,NaMg3(Si3Al)O10(OH)2,"{""Na"": 1.0, ""Mg"": 3.0, ""Si"": 3.0, ""Al"": 1.0, ""O"": 12.0, ""H"": 2.0}",401.19,#FFFFFF,triclinic,"{""system"": ""triclinic"", ""scale"": [0.7, 1.0, 1.3], ""optical"": {""transparent"": 1, ""refraction"": 1.5, ""birefringence"": 0.01}}"
Asselbornite,Pb(UO2)4(BiO)3(AsO4)2(OH)7·4H2O,"{""Pb"": 1.0, ""U"": 4.0, ""O"": 30.0, ""Bi"": 3.0, ""As"": 2.0, ""H"": 15.0}",2431.22,#FFFFFF,cubic,"{""system"": ""cubic"", ""scale"": [1.0, 1.0, 1.0], ""optical"": {""transparent"": 1, ""refraction"": 1.5, ""birefringence"": 0.0}}"
Astrophyllite,K2NaFe2+7Ti2(Si4O12)2O2(OH)4F,"{""K"": 2.0, ""Na"": 1.0, ""Fe"": 7.0, ""Ti"": 2.0, ""Si"": 8.0, ""O"": 30.0, ""H"": 4.0, ""F"": 1.0}",1315.63,#556B2F,triclinic,"{""system"": ""triclinic"", ""scale"": [0.7, 1.0, 1.3], ""optical"": {""transparent"": 0, ""refraction"": 0.0, ""birefringence"": 0.0}}"
Atacamite,Cu2Cl(OH)3,"{""Cu"": 2.0, ""Cl"": 1.0, ""O"": 3.0, ""H"": 3.0}",213.57,#FFFFFF,orthorhombic,"{""system"": ""orthorhombic"", ""scale"": [0.8, 1.0, 1.2], ""optical"": {""transparent"": 1, ""refraction"": 1.5, ""birefringence"": 0.01}}"
Atelestite,Bi2O(AsO4)(OH),"{""Bi"": 2.0, ""O"": 6.0, ""As"": 1.0, ""H"": 1.0}",589.89,#FFFFFF,monoclinic,"{""system"": ""monoclinic"", ""scale"": [0.7, 1.0, 1.3], ""optical"": {""transparent"": 1, ""refraction"": 1.5, ""birefringence"": 0.01}}"
Atelisite-(Y),Y4Si3O8(OH)8,"{""Y"": 4.0, ""Si"": 3.0, ""O"": 16.0, ""H"": 8.0}",703.97,#FFFFFF,tetragonal,"{""system"": ""tetragonal"", ""scale"": [1.0, 1.0, 1.4], ""optical"": {""transparent"": 1, ""refraction"": 1.5, ""birefringence"": 0.01}}"
Atencioite,Ca2Fe2+3Mg2Be4(PO4)6(OH)4·6H2O,"{""Ca"": 2.0, ""Fe"": 3.0, ""Mg"": 2.0, ""Be"": 4.0, ""P"": 6.0, ""O"": 34.0, ""H"": 16.0}",1078.32,#556B2F,triclinic,"{""system"": ""triclinic"", ""scale"": [0.7, 1.0, 1.3], ""optical"": {""transparent"": 0, ""refraction"": 0.0, ""birefringence"": 0.0}}"
Athabascaite,Cu5Se4,"{""Cu"": 5.0, ""Se"": 4.0}",633.59,#00BFFF,orthorhombic,"{""system"": ""orthorhombic"", ""scale"": [0.8, 1.0, 1.2], ""optical"": {""transparent"": 0, ""refraction"": 0.0, ""birefringence"": 0.0}}"
Atlasovite,Cu2+6Fe3+Bi3+O4(SO4)5·KCl,"{""Cu"": 6.0, ""Fe"": 1.0, ""Bi"": 1.0, ""O"": 24.0, ""S"": 5.0, ""K"": 1.0, ""Cl"": 1.0}",1264.98,#556B2F,tetragonal,"{""system"": ""tetragonal"", ""scale"": [1.0, 1.0, 1.4], ""optical"": {""transparent"": 0, ""refraction"": 0.0, ""birefringence"": 0.0}}"
Attikaite,Ca3Cu2Al2(AsO4)4(OH)4·2H2O,"{""Ca"": 3.0, ""Cu"": 2.0, ""Al"": 2.0, ""As"": 4.0, ""O"": 22.0, ""H"": 8.0}",961.04,#FFFFFF,orthorhombic,"{""system"": ""orthorhombic"", ""scale"": [0.8, 1.0, 1.2], ""optical"": {""transparent"": 1, ""refraction"": 1.5, ""birefringence"": 0.01}}"
Aubertite,Cu2+Al(SO4)2Cl·14H2O,"{""Cu"": 1.0, ""Al"": 1.0, ""S"": 2.0, ""O"": 22.0, ""Cl"": 1.0, ""H"": 28.0}",570.32,#FFFFFF,triclinic,"{""system"": ""triclinic"", ""scale"": [0.7, 1.0, 1.3], ""optical"": {""transparent"": 1, ""refraction"": 1.5, ""birefringence"": 0.01}}"
Augelite,Al2(PO4)(OH)3,"{""Al"": 2.0, ""P"": 1.0, ""O"": 7.0, ""H"": 3.0}",199.95,#FFFFFF,monoclinic,"{""system"": ""monoclinic"", ""scale"": [0.7, 1.0, 1.3], ""optical"": {""transparent"": 1, ""refraction"": 1.5, ""birefringence"": 0.01}}"
Auriacusite,Fe3+Cu2+(AsO4)O,"{""Fe"": 1.0, ""Cu"": 1.0, ""As"": 1.0, ""O"": 5.0}",274.32,#556B2F,orthorhombic,"{""system"": ""orthorhombic"", ""scale"": [0.8, 1.0, 1.2], ""optical"": {""transparent"": 0, ""refraction"": 0.0, ""birefringence"": 0.0}}"
Auricupride,Cu3Au,"{""Cu"": 3.0, ""Au"": 1.0}",387.62,#00BFFF,cubic,"{""system"": ""cubic"", ""scale"": [1.0, 1.0, 1.0], ""optical"": {""transparent"": 0, ""refraction"": 0.0, ""birefringence"": 0.0}}"
Aurihydrargyrumite,Au6Hg5,"{""Au"": 6.0, ""Hg"": 5.0}",2184.77,#FFD700,hexagonal,"{""system"": ""hexagonal"", ""scale"": [1.0, 1.0, 1.6], ""optical"": {""transparent"": 0, ""refraction"": 0.0, ""birefringence"": 0.0}}"
Aurivilliusite,Hg1+Hg2+OI,"{""Hg"": 2.0, ""O"": 1.0, ""I"": 1.0}",544.08,#FFFFFF,monoclinic,"{""system"": ""monoclinic"", ""scale"": [0.7, 1.0, 1.3], ""optical"": {""transparent"": 1, ""refraction"": 1.5, ""birefringence"": 0.01}}"
Auropearceite,[Ag9AuS4][Ag6As2S7],"{""Ag"": 15.0, ""Au"": 1.0, ""S"": 11.0, ""As"": 2.0}",2317.52,#FFD700,hexagonal,"{""system"": ""hexagonal"", ""scale"": [1.0, 1.0, 1.6], ""optical"": {""transparent"": 0, ""refraction"": 0.0, ""birefringence"": 0.0}}"
Auropolybasite,[Ag9AuS4][Ag6Sb2S7],"{""Ag"": 15.0, ""Au"": 1.0, ""S"": 11.0, ""Sb"": 2.0}",2411.2,#A9A9A9,hexagonal,"{""system"": ""hexagonal"", ""scale"": [1.0, 1.0, 1.6], ""optical"": {""transparent"": 0, ""refraction"": 0.0, ""birefringence"": 0.0}}"
Auroselenide,AuSe,"{""Au"": 1.0, ""Se"": 1.0}",275.93,#FFD700,monoclinic,"{""system"": ""monoclinic"", ""scale"": [0.7, 1.0, 1.3], ""optical"": {""transparent"": 0, ""refraction"": 0.0, ""birefringence"": 0.0}}"
Aurostibite,AuSb2,"{""Au"": 1.0, ""Sb"": 2.0}",440.49,#FFD700,cubic,"{""system"": ""cubic"", ""scale"": [1.0, 1.0, 1.0], ""optical"": {""transparent"": 0, ""refraction"": 0.0, ""birefringence"": 0.0}}"
Autunite,Ca(UO2)2(PO4)2·10-12H2O,"{""Ca"": 1.0, ""U"": 2.0, ""O"": 24.0, ""P"": 2.0, ""H"": 24.0}",986.27,#FFFFFF,orthorhombic,"{""system"": ""orthorhombic"", ""scale"": [0.8, 1.0, 1.2], ""optical"": {""transparent"": 1, ""refraction"": 1.5, ""birefringence"": 0.01}}"
Avdeevite,NaAl4(Be5Li)(Si6O18)2(H2O)1-2,"{""Na"": 1.0, ""Al"": 4.0, ""Be"": 5.0, ""Li"": 1.0, ""Si"": 12.0, ""O"": 38.0, ""H"": 4.0}",1132.01,#FFFFFF,hexagonal,"{""system"": ""hexagonal"", ""scale"": [1.0, 1.0, 1.6], ""optical"": {""transparent"": 1, ""refraction"": 1.5, ""birefringence"": 0.01}}"
Avdoninite,K2Cu5Cl8(OH)4·2H2O,"{""K"": 2.0, ""Cu"": 5.0, ""Cl"": 8.0, ""O"": 6.0, ""H"": 8.0}",783.61,#FFFFFF,monoclinic,"{""system"": ""monoclinic"", ""scale"": [0.7, 1.0, 1.3], ""optical"": {""transparent"": 1, ""refraction"": 1.5, ""birefringence"": 0.01}}"
Averievite,Cu5O2(VO4)2·CuCl2,"{""Cu"": 6.0, ""O"": 10.0, ""V"": 2.0, ""Cl"": 2.0}",714.08,#FFFFFF,hexagonal,"{""system"": ""hexagonal"", ""scale"": [1.0, 1.0, 1.6], ""optical"": {""transparent"": 1, ""refraction"": 1.5, ""birefringence"": 0.01}}"
Avicennite,Tl2O3,"{""Tl"": 2.0, ""O"": 3.0}",456.76,#FFFFFF,cubic,"{""system"": ""cubic"", ""scale"": [1.0, 1.0, 1.0], ""optical"": {""transparent"": 1, ""refraction"": 1.5, ""birefringence"": 0.0}}"
Avogadrite,KBF4,"{""K"": 1.0, ""B"": 1.0, ""F"": 4.0}",125.91,#FFFFFF,orthorhombic,"{""system"": ""orthorhombic"", ""scale"": [0.8, 1.0, 1.2], ""optical"": {""transparent"": 1, ""refraction"": 1.5, ""birefringence"": 0.01}}"
Awaruite,Ni3Fe,"{""Ni"": 3.0, ""Fe"": 1.0}",231.92,#7FFF00,cubic,"{""system"": ""cubic"", ""scale"": [1.0, 1.0, 1.0], ""optical"": {""transparent"": 0, ""refraction"": 0.0, ""birefringence"": 0.0}}"
Axelite,Na14Cu7(AsO4)8F2Cl2,"{""Na"": 14.0, ""Cu"": 7.0, ""As"": 8.0, ""O"": 32.0, ""F"": 2.0, ""Cl"": 2.0}",1986.97,#FFFFFF,tetragonal,"{""system"": ""tetragonal"", ""scale"": [1.0, 1.0, 1.4], ""optical"": {""transparent"": 1, ""refraction"": 1.5, ""birefringence"": 0.01}}"
Axinite-(Fe),Ca4Fe2+2Al4[B2Si8O30](OH)2,"{""Ca"": 4.0, ""Fe"": 2.0, ""Al"": 4.0, ""B"": 2.0, ""Si"": 8.0, ""O"": 32.0, ""H"": 2.0}",1140.3,#556B2F,triclinic,"{""system"": ""triclinic"", ""scale"": [0.7, 1.0, 1.3], ""optical"": {""transparent"": 0, ""refraction"": 0.0, ""birefringence"": 0.0}}"
Axinite-(Mg),Ca4Mg2Al4[B2Si8O30](OH)2,"{""Ca"": 4.0, ""Mg"": 2.0, ""Al"": 4.0, ""B"": 2.0, ""Si"": 8.0, ""O"": 32.0, ""H"": 2.0}",1077.22,#FFFFFF,triclinic,"{""system"": ""triclinic"", ""scale"": [0.7, 1.0, 1.3], ""optical"": {""transparent"": 1, ""refraction"": 1.5, ""birefringence"": 0.01}}"
Azurite,Cu3(CO3)2(OH)2,"{""Cu"": 3.0, ""C"": 2.0, ""O"": 8.0, ""H"": 2.0}",344.69,#FFFFFF,monoclinic,"{""system"": ""monoclinic"", ""scale"": [0.7, 1.0, 1.3], ""optical"": {""transparent"": 1, ""refraction"": 1.5, ""birefringence"": 0.01}}"
Babanekite,Cu3(AsO4)2·8H2O,"{""Cu"": 3.0, ""As"": 2.0, ""O"": 16.0, ""H"": 16.0}",612.62,#FFFFFF,monoclinic,"{""system"": ""monoclinic"", ""scale"": [0.7, 1.0, 1.3], ""optical"": {""transparent"": 1, ""refraction"": 1.5, ""birefringence"": 0.01}}"
Babefphite,BaBe(PO4)F,"{""Ba"": 1.0, ""Be"": 1.0, ""P"": 1.0, ""O"": 4.0, ""F"": 1.0}",260.31,#FFFFFF,triclinic,"{""system"": ""triclinic"", ""scale"": [0.7, 1.0, 1.3], ""optical"": {""transparent"": 1, ""refraction"": 1.5, ""birefringence"": 0.01}}"
Babingtonite,Ca2Fe2+Fe3+Si5O14(OH),"{""Ca"": 2.0, ""Fe"": 2.0, ""Si"": 5.0, ""O"": 15.0, ""H"": 1.0}",573.32,#556B2F,triclinic,"{""system"": ""triclinic"", ""scale"": [0.7, 1.0, 1.3], ""optical"": {""transparent"": 0, ""refraction"": 0.0, ""birefringence"": 0.0}}"
Babunaite-(Nd),Nd(AsO4),"{""Nd"": 1.0, ""As"": 1.0, ""O"": 4.0}",283.16,#808080,tetragonal,"{""system"": ""tetragonal"", ""scale"": [1.0, 1.0, 1.4], ""optical"": {""transparent"": 0, ""refraction"": 0.0, ""birefringence"": 0.0}}"
Bacaferrite,BaCaFe4O8,"{""Ba"": 1.0, ""Ca"": 1.0, ""Fe"": 4.0, ""O"": 8.0}",528.81,#556B2F,hexagonal,"{""system"": ""hexagonal"", ""scale"": [1.0, 1.0, 1.6], ""optical"": {""transparent"": 0, ""refraction"": 0.0, ""birefringence"": 0.0}}"
Backite,Pb2AlTeO6Cl,"{""Pb"": 2.0, ""Al"": 1.0, ""Te"": 1.0, ""O"": 6.0, ""Cl"": 1.0}",700.43,#FFFFFF,hexagonal,"{""system"": ""hexagonal"", ""scale"": [1.0, 1.0, 1.6], ""optical"": {""transparent"": 1, ""refraction"": 1.5, ""birefringence"": 0.01}}"
Badalovite,NaNaMg(MgFe3+)(AsO4)3,"{""Na"": 2.0, ""Mg"": 2.0, ""Fe"": 1.0, ""As"": 3.0, ""O"": 12.0}",567.21,#556B2F,monoclinic,"{""system"": ""monoclinic"", ""scale"": [0.7, 1.0, 1.3], ""optical"": {""transparent"": 0, ""refraction"": 0.0, ""birefringence"": 0.0}}"
Baddeleyite,ZrO2,"{""Zr"": 1.0, ""O"": 2.0}",123.22,#FFFFFF,orthorhombic,"{""system"": ""orthorhombic"", ""scale"": [0.8, 1.0, 1.2], ""optical"": {""transparent"": 1, ""refraction"": 1.5, ""birefringence"": 0.01}}"
Badengzhuite,TiP,"{""Ti"": 1.0, ""P"": 1.0}",78.84,#FFFFFF,hexagonal,"{""system"": ""hexagonal"", ""scale"": [1.0, 1.0, 1.6], ""optical"": {""transparent"": 1, ""refraction"": 1.5, ""birefringence"": 0.01}}"
Bafertisite,Ba2Fe2+4Ti2(Si2O7)2O2(OH)2F2,"{""Ba"": 2.0, ""Fe"": 4.0, ""Ti"": 2.0, ""Si"": 4.0, ""O"": 18.0, ""H"": 2.0, ""F"": 2.0}",1034.18,#556B2F,monoclinic,"{""system"": ""monoclinic"", ""scale"": [0.7, 1.0, 1.3], ""optical"": {""transparent"": 0, ""refraction"": 0.0, ""birefringence"": 0.0}}"
Baghdadite,Ca6Zr2(Si2O7)2O4,"{""Ca"": 6.0, ""Zr"": 2.0, ""Si"": 4.0, ""O"": 18.0}",823.28,#FFFFFF,monoclinic,"{""system"": ""monoclinic"", ""scale"": [0.7, 1.0, 1.3], ""optical"": {""transparent"": 1, ""refraction"": 1.5, ""birefringence"": 0.01}}"
Bahianite,Al5Sb5+3O14(OH)2,"{""Al"": 5.0, ""Sb"": 3.0, ""O"": 16.0, ""H"": 2.0}",758.2,#FFFFFF,monoclinic,"{""system"": ""monoclinic"", ""scale"": [0.7, 1.0, 1.3], ""optical"": {""transparent"": 1, ""refraction"": 1.5, ""birefringence"": 0.01}}"
Baiamareite,Ag4Pb12Fe4Sb20S48,"{""Ag"": 4.0, ""Pb"": 12.0, ""Fe"": 4.0, ""Sb"": 20.0, ""S"": 48.0}",7115.36,#DAA520,monoclinic,"{""system"": ""monoclinic"", ""scale"": [0.7, 1.0, 1.3], ""optical"": {""transparent"": 0, ""refraction"": 0.0, ""birefringence"": 0.0}}"
Bainbridgeite-(NdCe),Na2Ba2NdCe(CO3)6·3H2O,"{""Na"": 2.0, ""Ba"": 2.0, ""Nd"": 1.0, ""Ce"": 1.0, ""C"": 6.0, ""O"": 21.0, ""H"": 6.0}",1019.11,#FFFFFF,triclinic,"{""system"": ""triclinic"", ""scale"": [0.7, 1.0, 1.3], ""optical"": {""transparent"": 1, ""refraction"": 1.5, ""birefringence"": 0.01}}"
Bainbridgeite-(YCe),Na2Ba2YCe(CO3)6·3H2O,"{""Na"": 2.0, ""Ba"": 2.0, ""Y"": 1.0, ""Ce"": 1.0, ""C"": 6.0, ""O"": 21.0, ""H"": 6.0}",963.78,#FFFFFF,triclinic,"{""system"": ""triclinic"", ""scale"": [0.7, 1.0, 1.3], ""optical"": {""transparent"": 1, ""refraction"": 1.5, ""birefringence"": 0.01}}"
Bairdite,Pb2Cu2+4Te6+2O10(OH)2(SO4)·H2O,"{""Pb"": 2.0, ""Cu"": 4.0, ""Te"": 2.0, ""O"": 17.0, ""H"": 4.0, ""S"": 1.0}",1231.89,#FFFFFF,monoclinic,"{""system"": ""monoclinic"", ""scale"": [0.7, 1.0, 1.3], ""optical"": {""transparent"": 1, ""refraction"": 1.5, ""birefringence"": 0.01}}"
Bakakinite,Ca2V2O7,"{""Ca"": 2.0, ""V"": 2.0, ""O"": 7.0}",294.04,#FFFFFF,triclinic,"{""system"": ""triclinic"", ""scale"": [0.7, 1.0, 1.3], ""optical"": {""transparent"": 1, ""refraction"": 1.5, ""birefringence"": 0.01}}"
Bakhchisaraitsevite,Na2Mg5(PO4)4·7H2O,"{""Na"": 2.0, ""Mg"": 5.0, ""P"": 4.0, ""O"": 23.0, ""H"": 14.0}",673.52,#FFFFFF,monoclinic,"{""system"": ""monoclinic"", ""scale"": [0.7, 1.0, 1.3], ""optical"": {""transparent"": 1, ""refraction"": 1.5, ""birefringence"": 0.01}}"
Baksanite,Bi6Te2S3,"{""Bi"": 6.0, ""Te"": 2.0, ""S"": 3.0}",1605.26,#A9A9A9,hexagonal,"{""system"": ""hexagonal"", ""scale"": [1.0, 1.0, 1.6], ""optical"": {""transparent"": 0, ""refraction"": 0.0, ""birefringence"": 0.0}}"
Balangeroite,Mg21Si8O27(OH)20,"{""Mg"": 21.0, ""Si"": 8.0, ""O"": 47.0, ""H"": 20.0}",1507.39,#FFFFFF,triclinic,"{""system"": ""triclinic"", ""scale"": [0.7, 1.0, 1.3], ""optical"": {""transparent"": 1, ""refraction"": 1.5, ""birefringence"": 0.01}}"
Balestraite,KLi2V5+Si4O12,"{""K"": 1.0, ""Li"": 2.0, ""V"": 1.0, ""Si"": 4.0, ""O"": 12.0}",408.28,#FFFFFF,monoclinic,"{""system"": ""monoclinic"", ""scale"": [0.7, 1.0, 1.3], ""optical"": {""transparent"": 1, ""refraction"": 1.5, ""birefringence"": 0.01}}"
Baliczunicite,Bi2O(SO4)2,"{""Bi"": 2.0, ""O"": 9.0, ""S"": 2.0}",626.08,#FFFF00,triclinic,"{""system"": ""triclinic"", ""scale"": [0.7, 1.0, 1.3], ""optical"": {""transparent"": 0, ""refraction"": 0.0, ""birefringence"": 0.0}}"
Balipholite,LiBaMg2Al3(Si2O6)2(OH)8,"{""Li"": 1.0, ""Ba"": 1.0, ""Mg"": 2.0, ""Al"": 3.0, ""Si"": 4.0, ""O"": 20.0, ""H"": 8.0}",714.25,#FFFFFF,orthorhombic,"{""system"": ""orthorhombic"", ""scale"": [0.8, 1.0, 1.2], ""optical"": {""transparent"": 1, ""refraction"": 1.5, ""birefringence"": 0.01}}"
Balkanite,Ag5Cu9HgS8,"{""Ag"": 5.0, ""Cu"": 9.0, ""Hg"": 1.0, ""S"": 8.0}",1568.37,#A9A9A9,monoclinic,"{""system"": ""monoclinic"", ""scale"": [0.7, 1.0, 1.3], ""optical"": {""transparent"": 0, ""refraction"": 0.0, ""birefringence"": 0.0}}"