name,formula,elements,density,color,crystal_system,dna
Ferberite,Fe2+(WO4),"{""Fe"": 1.0, ""W"": 1.0, ""O"": 4.0}",303.69,#8B4513,monoclinic,"{""system"": ""monoclinic"", ""scale"": [0.7, 1.0, 1.3], ""optical"": {""transparent"": 0, ""refraction"": 0.0, ""birefringence"": 0.0}}"
Ferdowsiite,Ag8(Sb5As3)S16,"{""Ag"": 8.0, ""Sb"": 5.0, ""As"": 3.0, ""S"": 16.0}",2209.48,#FFD700,monoclinic,"{""system"": ""monoclinic"", ""scale"": [0.7, 1.0, 1.3], ""optical"": {""transparent"": 0, ""refraction"": 0.0, ""birefringence"": 0.0}}"
Fergusonite-(Y),YNbO4,"{""Y"": 1.0, ""Nb"": 1.0, ""O"": 4.0}",245.82,#FFFFFF,tetragonal,"{""system"": ""tetragonal"", ""scale"": [1.0, 1.0, 1.4], ""optical"": {""transparent"": 1, ""refraction"": 1.5, ""birefringence"": 0.01}}"
Fermiite,Na4(UO2)(SO4)3·3H2O,"{""Na"": 4.0, ""U"": 1.0, ""O"": 17.0, ""S"": 3.0, ""H"": 6.0}",704.22,#FFFFFF,orthorhombic,"{""system"": ""orthorhombic"", ""scale"": [0.8, 1.0, 1.2], ""optical"": {""transparent"": 1, ""refraction"": 1.5, ""birefringence"": 0.01}}"
Feroxyhyte,Fe3+O(OH),"{""Fe"": 1.0, ""O"": 2.0, ""H"": 1.0}",88.86,#8B4513,hexagonal,"{""system"": ""hexagonal"", ""scale"": [1.0, 1.0, 1.6], ""optical"": {""transparent"": 0, ""refraction"": 0.0, ""birefringence"": 0.0}}"
Ferrarisite,Ca5(AsO3OH)2(AsO4)2·9H2O,"{""Ca"": 5.0, ""As"": 4.0, ""O"": 25.0, ""H"": 20.0}",920.24,#FFFFFF,triclinic,"{""system"": ""triclinic"", ""scale"": [0.7, 1.0, 1.3], ""optical"": {""transparent"": 1, ""refraction"": 1.5, ""birefringence"": 0.01}}"
Ferriallanite-(Ce),CaCe(Fe3+AlFe2+)[Si2O7][SiO4]O(OH),"{""Ca"": 1.0, ""Ce"": 1.0, ""Fe"": 2.0, ""Al"": 1.0, ""Si"": 3.0, ""O"": 13.0, ""H"": 1.0}",612.16,#556B2F,monoclinic,"{""system"": ""monoclinic"", ""scale"": [0.7, 1.0, 1.3], ""optical"": {""transparent"": 0, ""refraction"": 0.0, ""birefringence"": 0.0}}"
Ferriallanite-(La),CaLa(Fe3+AlFe2+)[Si2O7][SiO4]O(OH),"{""Ca"": 1.0, ""La"": 1.0, ""Fe"": 2.0, ""Al"": 1.0, ""Si"": 3.0, ""O"": 13.0, ""H"": 1.0}",610.95,#556B2F,monoclinic,"{""system"": ""monoclinic"", ""scale"": [0.7, 1.0, 1.3], ""optical"": {""transparent"": 0, ""refraction"": 0.0, ""birefringence"": 0.0}}"
Ferribushmakinite,Pb2Fe3+(PO4)(VO4)(OH),"{""Pb"": 2.0, ""Fe"": 1.0, ""P"": 1.0, ""O"": 9.0, ""V"": 1.0, ""H"": 1.0}",697.17,#556B2F,monoclinic,"{""system"": ""monoclinic"", ""scale"": [0.7, 1.0, 1.3], ""optical"": {""transparent"": 0, ""refraction"": 0.0, ""birefringence"": 0.0}}"
Ferri-fluoro-katophorite,Na(NaCa)(Mg4Fe3+)(Si7Al)O22F2,"{""Na"": 2.0, ""Ca"": 1.0, ""Mg"": 4.0, ""Fe"": 1.0, ""Si"": 7.0, ""Al"": 1.0, ""O"": 22.0, ""F"": 2.0}",852.76,#556B2F,monoclinic,"{""system"": ""monoclinic"", ""scale"": [0.7, 1.0, 1.3], ""optical"": {""transparent"": 0, ""refraction"": 0.0, ""birefringence"": 0.0}}"
Ferri-fluoro-leakeite,NaNa2(Mg2Fe3+2Li)Si8O22F2,"{""Na"": 3.0, ""Mg"": 2.0, ""Fe"": 2.0, ""Li"": 1.0, ""Si"": 8.0, ""O"": 22.0, ""F"": 2.0}",850.95,#556B2F,monoclinic,"{""system"": ""monoclinic"", ""scale"": [0.7, 1.0, 1.3], ""optical"": {""transparent"": 0, ""refraction"": 0.0, ""birefringence"": 0.0}}"
Ferrihydrite,Fe3+5O7(OH),"{""Fe"": 5.0, ""O"": 8.0, ""H"": 1.0}",408.26,#8B4513,hexagonal,"{""system"": ""hexagonal"", ""scale"": [1.0, 1.0, 1.6], ""optical"": {""transparent"": 0, ""refraction"": 0.0, ""birefringence"": 0.0}}"
Ferri-kaersutite,NaCa2(Mg3Fe3+Ti)(Si6Al2)O22O2,"{""Na"": 1.0, ""Ca"": 2.0, ""Mg"": 3.0, ""Fe"": 1.0, ""Ti"": 1.0, ""Si"": 6.0, ""Al"": 2.0, ""O"": 24.0}",886.3,#556B2F,monoclinic,"{""system"": ""monoclinic"", ""scale"": [0.7, 1.0, 1.3], ""optical"": {""transparent"": 0, ""refraction"": 0.0, ""birefringence"": 0.0}}"
Ferri-katophorite,Na(NaCa)(Mg4Fe3+)(Si7Al)O22(OH)2,"{""Na"": 2.0, ""Ca"": 1.0, ""Mg"": 4.0, ""Fe"": 1.0, ""Si"": 7.0, ""Al"": 1.0, ""O"": 24.0, ""H"": 2.0}",848.78,#556B2F,monoclinic,"{""system"": ""monoclinic"", ""scale"": [0.7, 1.0, 1.3], ""optical"": {""transparent"": 0, ""refraction"": 0.0, ""birefringence"": 0.0}}"
Ferri-leakeite,NaNa2(Mg2Fe3+2Li)Si8O22(OH)2,"{""Na"": 3.0, ""Mg"": 2.0, ""Fe"": 2.0, ""Li"": 1.0, ""Si"": 8.0, ""O"": 24.0, ""H"": 2.0}",846.97,#556B2F,monoclinic,"{""system"": ""monoclinic"", ""scale"": [0.7, 1.0, 1.3], ""optical"": {""transparent"": 0, ""refraction"": 0.0, ""birefringence"": 0.0}}"
Ferrimolybdite,Fe3+2(Mo6+O4)3·7H2O,"{""Fe"": 2.0, ""Mo"": 3.0, ""O"": 19.0, ""H"": 14.0}",717.66,#556B2F,,"{""system"": """", ""scale"": [1.0, 1.0, 1.0], ""optical"": {""transparent"": 0, ""refraction"": 0.0, ""birefringence"": 0.0}}"
Ferrimuirite,Ba10(Ca2Fe3+2)[Si8O24]O2Cl10,"{""Ba"": 10.0, ""Ca"": 2.0, ""Fe"": 2.0, ""Si"": 8.0, ""O"": 26.0, ""Cl"": 10.0}",2560.38,#556B2F,tetragonal,"{""system"": ""tetragonal"", ""scale"": [1.0, 1.0, 1.4], ""optical"": {""transparent"": 0, ""refraction"": 0.0, ""birefringence"": 0.0}}"
Ferrinatrite,Na3Fe3+(SO4)3·3H2O,"{""Na"": 3.0, ""Fe"": 1.0, ""S"": 3.0, ""O"": 15.0, ""H"": 6.0}",467.05,#556B2F,hexagonal,"{""system"": ""hexagonal"", ""scale"": [1.0, 1.0, 1.6], ""optical"": {""transparent"": 0, ""refraction"": 0.0, ""birefringence"": 0.0}}"
Ferri-obertiite,NaNa2(Mg3Fe3+Ti)Si8O22O2,"{""Na"": 3.0, ""Mg"": 3.0, ""Fe"": 1.0, ""Ti"": 1.0, ""Si"": 8.0, ""O"": 24.0}",854.34,#556B2F,monoclinic,"{""system"": ""monoclinic"", ""scale"": [0.7, 1.0, 1.3], ""optical"": {""transparent"": 0, ""refraction"": 0.0, ""birefringence"": 0.0}}"
Ferri-pedrizite,NaLi2(Mg2Fe3+2Li)Si8O22(OH)2,"{""Na"": 1.0, ""Li"": 3.0, ""Mg"": 2.0, ""Fe"": 2.0, ""Si"": 8.0, ""O"": 24.0, ""H"": 2.0}",814.87,#556B2F,monoclinic,"{""system"": ""monoclinic"", ""scale"": [0.7, 1.0, 1.3], ""optical"": {""transparent"": 0, ""refraction"": 0.0, ""birefringence"": 0.0}}"
Ferriperboeite-(Ce),(CaCe3)(Fe3+Al2Fe2+)(Si2O7)(SiO4)3O(OH)2,"{""Ca"": 1.0, ""Ce"": 3.0, ""Fe"": 2.0, ""Al"": 2.0, ""Si"": 5.0, ""O"": 22.0, ""H"": 2.0}",1120.57,#556B2F,monoclinic,"{""system"": ""monoclinic"", ""scale"": [0.7, 1.0, 1.3], ""optical"": {""transparent"": 0, ""refraction"": 0.0, ""birefringence"": 0.0}}"
Ferriperboeite-(La),(CaLa3)(Fe3+Al2Fe2+)[Si2O7][SiO4]3O(OH)2,"{""Ca"": 1.0, ""La"": 3.0, ""Fe"": 2.0, ""Al"": 2.0, ""Si"": 5.0, ""O"": 22.0, ""H"": 2.0}",1116.94,#556B2F,monoclinic,"{""system"": ""monoclinic"", ""scale"": [0.7, 1.0, 1.3], ""optical"": {""transparent"": 0, ""refraction"": 0.0, ""birefringence"": 0.0}}"
Ferriphoxite,[(NH4)2K(H2O)][Fe3+(HPO4)2(C2O4)],"{""N"": 2.0, ""H"": 12.0, ""K"": 1.0, ""O"": 13.0, ""Fe"": 1.0, ""P"": 2.0, ""C"": 2.0}",429.03,#556B2F,monoclinic,"{""system"": ""monoclinic"", ""scale"": [0.7, 1.0, 1.3], ""optical"": {""transparent"": 0, ""refraction"": 0.0, ""birefringence"": 0.0}}"
Ferriprehnite,Ca2Fe3+(AlSi3)O10(OH)2,"{""Ca"": 2.0, ""Fe"": 1.0, ""Al"": 1.0, ""Si"": 3.0, ""O"": 12.0, ""H"": 2.0}",441.28,#556B2F,orthorhombic,"{""system"": ""orthorhombic"", ""scale"": [0.8, 1.0, 1.2], ""optical"": {""transparent"": 0, ""refraction"": 0.0, ""birefringence"": 0.0}}"
Ferripyrophyllite,Fe3+Si2O5(OH),"{""Fe"": 1.0, ""Si"": 2.0, ""O"": 6.0, ""H"": 1.0}",209.04,#556B2F,monoclinic,"{""system"": ""monoclinic"", ""scale"": [0.7, 1.0, 1.3], ""optical"": {""transparent"": 0, ""refraction"": 0.0, ""birefringence"": 0.0}}"
Ferrisanidine,K(Fe3+Si3O8),"{""K"": 1.0, ""Fe"": 1.0, ""Si"": 3.0, ""O"": 8.0}",307.22,#556B2F,monoclinic,"{""system"": ""monoclinic"", ""scale"": [0.7, 1.0, 1.3], ""optical"": {""transparent"": 0, ""refraction"": 0.0, ""birefringence"": 0.0}}"
Ferristrunzite,Fe3+Fe3+2(PO4)2(OH)3·5H2O,"{""Fe"": 3.0, ""P"": 2.0, ""O"": 16.0, ""H"": 13.0}",498.59,#556B2F,triclinic,"{""system"": ""triclinic"", ""scale"": [0.7, 1.0, 1.3], ""optical"": {""transparent"": 0, ""refraction"": 0.0, ""birefringence"": 0.0}}"
Ferrisymplesite,Fe3+3(AsO4)2(OH)3·5H2O,"{""Fe"": 3.0, ""As"": 2.0, ""O"": 16.0, ""H"": 13.0}",586.49,#556B2F,,"{""system"": """", ""scale"": [1.0, 1.0, 1.0], ""optical"": {""transparent"": 0, ""refraction"": 0.0, ""birefringence"": 0.0}}"
Ferri-taramite,Na(NaCa)(Mg3Fe3+2)(Si6Al2)O22(OH)2,"{""Na"": 2.0, ""Ca"": 1.0, ""Mg"": 3.0, ""Fe"": 2.0, ""Si"": 6.0, ""Al"": 2.0, ""O"": 24.0, ""H"": 2.0}",879.21,#556B2F,monoclinic,"{""system"": ""monoclinic"", ""scale"": [0.7, 1.0, 1.3], ""optical"": {""transparent"": 0, ""refraction"": 0.0, ""birefringence"": 0.0}}"
Ferrivauxite,Fe3+Al2(PO4)2(OH)3·5H2O,"{""Fe"": 1.0, ""Al"": 2.0, ""P"": 2.0, ""O"": 16.0, ""H"": 13.0}",440.85,#556B2F,triclinic,"{""system"": ""triclinic"", ""scale"": [0.7, 1.0, 1.3], ""optical"": {""transparent"": 0, ""refraction"": 0.0, ""birefringence"": 0.0}}"
Ferroakermanite,Ca2FeSi2O7,"{""Ca"": 2.0, ""Fe"": 1.0, ""Si"": 2.0, ""O"": 7.0}",304.19,#556B2F,tetragonal,"{""system"": ""tetragonal"", ""scale"": [1.0, 1.0, 1.4], ""optical"": {""transparent"": 0, ""refraction"": 0.0, ""birefringence"": 0.0}}"
Ferroalluaudite,NaFe2+Fe3+2(PO4)3,"{""Na"": 1.0, ""Fe"": 3.0, ""P"": 3.0, ""O"": 12.0}",475.45,#556B2F,monoclinic,"{""system"": ""monoclinic"", ""scale"": [0.7, 1.0, 1.3], ""optical"": {""transparent"": 0, ""refraction"": 0.0, ""birefringence"": 0.0}}"
Ferroaluminoceladonite,KFe2+AlSi4O10(OH)2,"{""K"": 1.0, ""Fe"": 1.0, ""Al"": 1.0, ""Si"": 4.0, ""O"": 12.0, ""H"": 2.0}",428.31,#556B2F,monoclinic,"{""system"": ""monoclinic"", ""scale"": [0.7, 1.0, 1.3], ""optical"": {""transparent"": 0, ""refraction"": 0.0, ""birefringence"": 0.0}}"
Ferroberaunite,Fe2+Fe3+5(PO4)4(OH)5·6H2O,"{""Fe"": 6.0, ""P"": 4.0, ""O"": 27.0, ""H"": 17.0}",908.12,#556B2F,monoclinic,"{""system"": ""monoclinic"", ""scale"": [0.7, 1.0, 1.3], ""optical"": {""transparent"": 0, ""refraction"": 0.0, ""birefringence"": 0.0}}"
Ferro-bosiite,NaFe3+3(Al4Fe2+2)(Si6O18)(BO3)3(OH)3O,"{""Na"": 1.0, ""Fe"": 5.0, ""Al"": 4.0, ""Si"": 6.0, ""O"": 31.0, ""B"": 3.0, ""H"": 3.0}",1110.15,#556B2F,hexagonal,"{""system"": ""hexagonal"", ""scale"": [1.0, 1.0, 1.6], ""optical"": {""transparent"": 0, ""refraction"": 0.0, ""birefringence"": 0.0}}"
Ferrobustamite,CaFe2+Si2O6,"{""Ca"": 1.0, ""Fe"": 1.0, ""Si"": 2.0, ""O"": 6.0}",248.11,#556B2F,triclinic,"{""system"": ""triclinic"", ""scale"": [0.7, 1.0, 1.3], ""optical"": {""transparent"": 0, ""refraction"": 0.0, ""birefringence"": 0.0}}"
Ferrocarpholite,Fe2+Al2Si2O6(OH)4,"{""Fe"": 1.0, ""Al"": 2.0, ""Si"": 2.0, ""O"": 10.0, ""H"": 4.0}",330.02,#556B2F,orthorhombic,"{""system"": ""orthorhombic"", ""scale"": [0.8, 1.0, 1.2], ""optical"": {""transparent"": 0, ""refraction"": 0.0, ""birefringence"": 0.0}}"
Ferroceladonite,KFe2+Fe3+Si4O10(OH)2,"{""K"": 1.0, ""Fe"": 2.0, ""Si"": 4.0, ""O"": 12.0, ""H"": 2.0}",457.18,#556B2F,monoclinic,"{""system"": ""monoclinic"", ""scale"": [0.7, 1.0, 1.3], ""optical"": {""transparent"": 0, ""refraction"": 0.0, ""birefringence"": 0.0}}"
Ferrodimolybdenite,FeMo2S4,"{""Fe"": 1.0, ""Mo"": 2.0, ""S"": 4.0}",375.99,#DAA520,monoclinic,"{""system"": ""monoclinic"", ""scale"": [0.7, 1.0, 1.3], ""optical"": {""transparent"": 0, ""refraction"": 0.0, ""birefringence"": 0.0}}"
Ferro-edenite,NaCa2Fe2+5(Si7Al)O22(OH)2,"{""Na"": 1.0, ""Ca"": 2.0, ""Fe"": 5.0, ""Si"": 7.0, ""Al"": 1.0, ""O"": 24.0, ""H"": 2.0}",992.03,#556B2F,monoclinic,"{""system"": ""monoclinic"", ""scale"": [0.7, 1.0, 1.3], ""optical"": {""transparent"": 0, ""refraction"": 0.0, ""birefringence"": 0.0}}"
Ferroefremovite,(NH4)2Fe2+2(SO4)3,"{""N"": 2.0, ""H"": 8.0, ""Fe"": 2.0, ""S"": 3.0, ""O"": 12.0}",435.96,#556B2F,cubic,"{""system"": ""cubic"", ""scale"": [1.0, 1.0, 1.0], ""optical"": {""transparent"": 0, ""refraction"": 0.0, ""birefringence"": 0.0}}"
Ferroericssonite,BaFe2+2Fe3+(Si2O7)O(OH),"{""Ba"": 1.0, ""Fe"": 3.0, ""Si"": 2.0, ""O"": 9.0, ""H"": 1.0}",506.07,#556B2F,monoclinic,"{""system"": ""monoclinic"", ""scale"": [0.7, 1.0, 1.3], ""optical"": {""transparent"": 0, ""refraction"": 0.0, ""birefringence"": 0.0}}"
Ferro-ferri-fluoro-leakeite,NaNa2(Fe2+2Fe3+2Li)Si8O22F2,"{""Na"": 3.0, ""Fe"": 4.0, ""Li"": 1.0, ""Si"": 8.0, ""O"": 22.0, ""F"": 2.0}",914.03,#556B2F,monoclinic,"{""system"": ""monoclinic"", ""scale"": [0.7, 1.0, 1.3], ""optical"": {""transparent"": 0, ""refraction"": 0.0, ""birefringence"": 0.0}}"
Ferro-ferri-katophorite,Na(NaCa)(Fe2+4Fe3+)(Si7Al)O22(OH)2,"{""Na"": 2.0, ""Ca"": 1.0, ""Fe"": 5.0, ""Si"": 7.0, ""Al"": 1.0, ""O"": 24.0, ""H"": 2.0}",974.94,#556B2F,monoclinic,"{""system"": ""monoclinic"", ""scale"": [0.7, 1.0, 1.3], ""optical"": {""transparent"": 0, ""refraction"": 0.0, ""birefringence"": 0.0}}"
Ferro-ferri-nyboite,NaNa2(Fe2+3Fe3+2)(Si7Al)O22(OH)2,"{""Na"": 3.0, ""Fe"": 5.0, ""Si"": 7.0, ""Al"": 1.0, ""O"": 24.0, ""H"": 2.0}",957.85,#556B2F,monoclinic,"{""system"": ""monoclinic"", ""scale"": [0.7, 1.0, 1.3], ""optical"": {""transparent"": 0, ""refraction"": 0.0, ""birefringence"": 0.0}}"
Ferro-ferri-obertiite,NaNa2(Fe2+3Fe3+Ti)Si8O22O2,"{""Na"": 3.0, ""Fe"": 4.0, ""Ti"": 1.0, ""Si"": 8.0, ""O"": 24.0}",948.96,#556B2F,monoclinic,"{""system"": ""monoclinic"", ""scale"": [0.7, 1.0, 1.3], ""optical"": {""transparent"": 0, ""refraction"": 0.0, ""birefringence"": 0.0}}"
Ferro-ferri-pedrizite,NaLi2(Fe2+2Fe3+2Li)Si8O22(OH)2,"{""Na"": 1.0, ""Li"": 3.0, ""Fe"": 4.0, ""Si"": 8.0, ""O"": 24.0, ""H"": 2.0}",877.95,#556B2F,monoclinic,"{""system"": ""monoclinic"", ""scale"": [0.7, 1.0, 1.3], ""optical"": {""transparent"": 0, ""refraction"": 0.0, ""birefringence"": 0.0}}"
Ferrofettelite,[Ag6As2S7][Ag10FeAs2S8],"{""Ag"": 16.0, ""As"": 4.0, ""S"": 15.0, ""Fe"": 1.0}",2562.35,#DAA520,monoclinic,"{""system"": ""monoclinic"", ""scale"": [0.7, 1.0, 1.3], ""optical"": {""transparent"": 0, ""refraction"": 0.0, ""birefringence"": 0.0}}"
Ferro-fluoro-edenite,NaCa2Fe2+5(Si7AlO22)F2,"{""Na"": 1.0, ""Ca"": 2.0, ""Fe"": 5.0, ""Si"": 7.0, ""Al"": 1.0, ""O"": 22.0, ""F"": 2.0}",996.01,#556B2F,monoclinic,"{""system"": ""monoclinic"", ""scale"": [0.7, 1.0, 1.3], ""optical"": {""transparent"": 0, ""refraction"": 0.0, ""birefringence"": 0.0}}"
Ferro-fluoro-pedrizite,NaLi2(Fe2+2Al2Li)Si8O22F2,"{""Na"": 1.0, ""Li"": 3.0, ""Fe"": 2.0, ""Al"": 2.0, ""Si"": 8.0, ""O"": 22.0, ""F"": 2.0}",824.19,#556B2F,monoclinic,"{""system"": ""monoclinic"", ""scale"": [0.7, 1.0, 1.3], ""optical"": {""transparent"": 0, ""refraction"": 0.0, ""birefringence"": 0.0}}"
Ferrohexahydrite,Fe2+(SO4)·6H2O,"{""Fe"": 1.0, ""S"": 1.0, ""O"": 10.0, ""H"": 12.0}",260.01,#556B2F,,"{""system"": """", ""scale"": [1.0, 1.0, 1.0], ""optical"": {""transparent"": 0, ""refraction"": 0.0, ""birefringence"": 0.0}}"
Ferroinnelite,Ba4Ti2Na(NaFe2+)Ti(Si2O7)2[(SO4)(PO4)]O2[O(OH)],"{""Ba"": 4.0, ""Ti"": 3.0, ""Na"": 2.0, ""Fe"": 1.0, ""Si"": 4.0, ""O"": 26.0, ""S"": 1.0, ""P"": 1.0, ""H"": 1.0}",1387.16,#556B2F,triclinic,"{""system"": ""triclinic"", ""scale"": [0.7, 1.0, 1.3], ""optical"": {""transparent"": 0, ""refraction"": 0.0, ""birefringence"": 0.0}}"
Ferro-katophorite,Na(NaCa)(Fe2+4Al)(Si7Al)O22(OH)2,"{""Na"": 2.0, ""Ca"": 1.0, ""Fe"": 4.0, ""Al"": 2.0, ""Si"": 7.0, ""O"": 24.0, ""H"": 2.0}",946.07,#556B2F,monoclinic,"{""system"": ""monoclinic"", ""scale"": [0.7, 1.0, 1.3], ""optical"": {""transparent"": 0, ""refraction"": 0.0, ""birefringence"": 0.0}}"
Ferrokinoshitalite,BaFe2+3(Si2Al2)O10(OH)2,"{""Ba"": 1.0, ""Fe"": 3.0, ""Si"": 2.0, ""Al"": 2.0, ""O"": 12.0, ""H"": 2.0}",609.04,#556B2F,monoclinic,"{""system"": ""monoclinic"", ""scale"": [0.7, 1.0, 1.3], ""optical"": {""transparent"": 0, ""refraction"": 0.0, ""birefringence"": 0.0}}"
Ferrolaueite,Fe2+Fe3+2(PO4)2(OH)2·8H2O,"{""Fe"": 3.0, ""P"": 2.0, ""O"": 18.0, ""H"": 18.0}",535.63,#556B2F,triclinic,"{""system"": ""triclinic"", ""scale"": [0.7, 1.0, 1.3], ""optical"": {""transparent"": 0, ""refraction"": 0.0, ""birefringence"": 0.0}}"
Ferromerrillite,Ca9NaFe2+(PO4)7,"{""Ca"": 9.0, ""Na"": 1.0, ""Fe"": 1.0, ""P"": 7.0, ""O"": 28.0}",1104.35,#556B2F,,"{""system"": """", ""scale"": [1.0, 1.0, 1.0], ""optical"": {""transparent"": 0, ""refraction"": 0.0, ""birefringence"": 0.0}}"
Ferronickelplatinum,Pt2FeNi,"{""Pt"": 2.0, ""Fe"": 1.0, ""Ni"": 1.0}",504.7,#7FFF00,tetragonal,"{""system"": ""tetragonal"", ""scale"": [1.0, 1.0, 1.4], ""optical"": {""transparent"": 0, ""refraction"": 0.0, ""birefringence"": 0.0}}"
Ferronordite-(Ce),Na3SrCeFe2+Si6O17,"{""Na"": 3.0, ""Sr"": 1.0, ""Ce"": 1.0, ""Fe"": 1.0, ""Si"": 6.0, ""O"": 17.0}",793.1,#556B2F,orthorhombic,"{""system"": ""orthorhombic"", ""scale"": [0.8, 1.0, 1.2], ""optical"": {""transparent"": 0, ""refraction"": 0.0, ""birefringence"": 0.0}}"
Ferronordite-(La),Na3SrLaFe2+Si6O17,"{""Na"": 3.0, ""Sr"": 1.0, ""La"": 1.0, ""Fe"": 1.0, ""Si"": 6.0, ""O"": 17.0}",791.89,#556B2F,orthorhombic,"{""system"": ""orthorhombic"", ""scale"": [0.8, 1.0, 1.2], ""optical"": {""transparent"": 0, ""refraction"": 0.0, ""birefringence"": 0.0}}"
Ferro-papikeite,NaFe2+2(Fe2+3Al2)(Si5Al3)O22(OH)2,"{""Na"": 1.0, ""Fe"": 5.0, ""Al"": 5.0, ""Si"": 5.0, ""O"": 24.0, ""H"": 2.0}",963.61,#556B2F,orthorhombic,"{""system"": ""orthorhombic"", ""scale"": [0.8, 1.0, 1.2], ""optical"": {""transparent"": 0, ""refraction"": 0.0, ""birefringence"": 0.0}}"
Ferro-pargasite,NaCa2(Fe2+4Al)(Si6Al2)O22(OH)2,"{""Na"": 1.0, ""Ca"": 2.0, ""Fe"": 4.0, ""Al"": 3.0, ""Si"": 6.0, ""O"": 24.0, ""H"": 2.0}",962.05,#556B2F,monoclinic,"{""system"": ""monoclinic"", ""scale"": [0.7, 1.0, 1.3], ""optical"": {""transparent"": 0, ""refraction"": 0.0, ""birefringence"": 0.0}}"
Ferro-pedrizite,NaLi2(Fe2+2Al2Li)Si8O22(OH)2,"{""Na"": 1.0, ""Li"": 3.0, ""Fe"": 2.0, ""Al"": 2.0, ""Si"": 8.0, ""O"": 24.0, ""H"": 2.0}",820.21,#556B2F,monoclinic,"{""system"": ""monoclinic"", ""scale"": [0.7, 1.0, 1.3], ""optical"": {""transparent"": 0, ""refraction"": 0.0, ""birefringence"": 0.0}}"
Ferroqingheiite,Na2Fe2+MgAl(PO4)3,"{""Na"": 2.0, ""Fe"": 1.0, ""Mg"": 1.0, ""Al"": 1.0, ""P"": 3.0, ""O"": 12.0}",438.03,#556B2F,monoclinic,"{""system"": ""monoclinic"", ""scale"": [0.7, 1.0, 1.3], ""optical"": {""transparent"": 0, ""refraction"": 0.0, ""birefringence"": 0.0}}"
Ferro-richterite,Na(NaCa)Fe2+5Si8O22(OH)2,"{""Na"": 2.0, ""Ca"": 1.0, ""Fe"": 5.0, ""Si"": 8.0, ""O"": 24.0, ""H"": 2.0}",976.05,#556B2F,,"{""system"": """", ""scale"": [1.0, 1.0, 1.0], ""optical"": {""transparent"": 0, ""refraction"": 0.0, ""birefringence"": 0.0}}"
Ferroselite,FeSe2,"{""Fe"": 1.0, ""Se"": 2.0}",213.77,#8B4513,orthorhombic,"{""system"": ""orthorhombic"", ""scale"": [0.8, 1.0, 1.2], ""optical"": {""transparent"": 0, ""refraction"": 0.0, ""birefringence"": 0.0}}"
Ferrosilite,Fe2+2Si2O6,"{""Fe"": 2.0, ""Si"": 2.0, ""O"": 6.0}",263.88,#8B4513,monoclinic,"{""system"": ""monoclinic"", ""scale"": [0.7, 1.0, 1.3], ""optical"": {""transparent"": 0, ""refraction"": 0.0, ""birefringence"": 0.0}}"
Ferroskutterudite,FeAs3,"{""Fe"": 1.0, ""As"": 3.0}",280.61,#8B4513,cubic,"{""system"": ""cubic"", ""scale"": [1.0, 1.0, 1.0], ""optical"": {""transparent"": 0, ""refraction"": 0.0, ""birefringence"": 0.0}}"
Ferrostalderite,CuFe2TlAs2S6,"{""Cu"": 1.0, ""Fe"": 2.0, ""Tl"": 1.0, ""As"": 2.0, ""S"": 6.0}",721.83,#DAA520,tetragonal,"{""system"": ""tetragonal"", ""scale"": [1.0, 1.0, 1.4], ""optical"": {""transparent"": 0, ""refraction"": 0.0, ""birefringence"": 0.0}}"
Ferrostrunzite,Fe2+Fe3+2(PO4)2(OH)2·6H2O,"{""Fe"": 3.0, ""P"": 2.0, ""O"": 16.0, ""H"": 14.0}",499.6,#556B2F,triclinic,"{""system"": ""triclinic"", ""scale"": [0.7, 1.0, 1.3], ""optical"": {""transparent"": 0, ""refraction"": 0.0, ""birefringence"": 0.0}}"
Ferrotaaffeite-6N3S,BeFe2+2Al6O12,"{""Be"": 1.0, ""Fe"": 2.0, ""Al"": 6.0, ""O"": 12.0}",474.59,#556B2F,hexagonal,"{""system"": ""hexagonal"", ""scale"": [1.0, 1.0, 1.6], ""optical"": {""transparent"": 0, ""refraction"": 0.0, ""birefringence"": 0.0}}"
Ferro-taramite,Na(NaCa)(Fe2+3Al2)(Si6Al2)O22(OH)2,"{""Na"": 2.0, ""Ca"": 1.0, ""Fe"": 3.0, ""Al"": 4.0, ""Si"": 6.0, ""O"": 24.0, ""H"": 2.0}",916.09,#556B2F,monoclinic,"{""system"": ""monoclinic"", ""scale"": [0.7, 1.0, 1.3], ""optical"": {""transparent"": 0, ""refraction"": 0.0, ""birefringence"": 0.0}}"
Ferrotitanowodginite,Fe2+TiTa2O8,"{""Fe"": 1.0, ""Ti"": 1.0, ""Ta"": 2.0, ""O"": 8.0}",593.62,#556B2F,monoclinic,"{""system"": ""monoclinic"", ""scale"": [0.7, 1.0, 1.3], ""optical"": {""transparent"": 0, ""refraction"": 0.0, ""birefringence"": 0.0}}"