name,formula,elements,density,color,crystal,pm_ids,gacha_weight
Danalite,Be3Fe2+4(SiO4)3S,"{""Be"": 3.0, ""Fe"": 4.0, ""Si"": 3.0, ""O"": 12.0, ""S"": 1.0}",558.7196,#556B2F,cubic,"{23,34,35,40}",2007.0
Danburite,CaB2Si2O8,"{""Ca"": 1.0, ""B"": 2.0, ""Si"": 2.0, ""O"": 8.0}",245.86,#FFFFFF,orthorhombic,"{19,25,31,32,40}",1440.0
Dantopaite,Ag5Bi13S22,"{""Ag"": 5.0, ""Bi"": 13.0, ""S"": 22.0}",3961.41,#A9A9A9,monoclinic,{33},797.0
Daomanite,CuPtAsS2,"{""Cu"": 1.0, ""Pt"": 1.0, ""As"": 1.0, ""S"": 2.0}",397.668,#FFD700,monoclinic,{12},129.0
Daqingshanite-(Ce),Sr3Ce(PO4)(CO3)3,"{""Sr"": 3.0, ""Ce"": 1.0, ""P"": 1.0, ""O"": 13.0, ""C"": 3.0}",677.974,#FFFFFF,hexagonal,"{31,35,36}",1373.0
Darapskite,Na3(SO4)(NO3)·H2O,"{""Na"": 3.0, ""S"": 1.0, ""O"": 8.0, ""N"": 1.0, ""H"": 2.0}",245.045,#FFFFFF,monoclinic,"{21,25,52}",361.0
Dargaite,BaCa12(SiO4)4(SO4)2O3,"{""Ba"": 1.0, ""Ca"": 12.0, ""Si"": 4.0, ""O"": 27.0, ""S"": 2.0}",1226.699,#FFFFFF,hexagonal,{51},128.0
Darrellhenryite,Na(Al2Li)Al6(Si6O18)(BO3)3(OH)3O,"{""Na"": 1.0, ""Al"": 8.0, ""Li"": 1.0, ""Si"": 6.0, ""O"": 31.0, ""B"": 3.0, ""H"": 3.0}",945.719,#FFFFFF,hexagonal,{34},564.0
Dashkovaite,Mg(HCOO)2·2H2O,"{""Mg"": 1.0, ""H"": 6.0, ""C"": 2.0, ""O"": 6.0}",150.369,#FFFFFF,monoclinic,{13},67.0
Datolite,CaB(SiO4)(OH),"{""Ca"": 1.0, ""B"": 1.0, ""Si"": 1.0, ""O"": 5.0, ""H"": 1.0}",159.976,#FFFFFF,monoclinic,"{23,31,40}",1073.0
Daubreeite,BiO(OH),"{""Bi"": 1.0, ""O"": 2.0, ""H"": 1.0}",241.986,#D2B48C,tetragonal,"{45,47}",2422.0
Daubreelite,FeCr2S4,"{""Fe"": 1.0, ""Cr"": 2.0, ""S"": 4.0}",288.077,#DAA520,cubic,"{4,5,6}",346.0
Davanite,K2TiSi6O15,"{""K"": 2.0, ""Ti"": 1.0, ""Si"": 6.0, ""O"": 15.0}",534.558,#FFFFFF,triclinic,{35},726.0
Davemaoite,CaSiO3,"{""Ca"": 1.0, ""Si"": 1.0, ""O"": 3.0}",116.16,#FFFFFF,cubic,{39},70.0
Davinciite,Na12K3Ca6Fe2+3Zr3(Si26O73OH)Cl2,"{""Na"": 12.0, ""K"": 3.0, ""Ca"": 6.0, ""Fe"": 3.0, ""Zr"": 3.0, ""Si"": 26.0, ""O"": 74.0, ""H"": 1.0, ""Cl"": 2.0}",3060.893,#556B2F,hexagonal,{35},726.0
Davisite,CaScAlSiO6,"{""Ca"": 1.0, ""Sc"": 1.0, ""Al"": 1.0, ""Si"": 1.0, ""O"": 6.0}",236.095,#FFFFFF,monoclinic,{3},48.0
Dawsonite,NaAl(CO3)(OH)2,"{""Na"": 1.0, ""Al"": 1.0, ""C"": 1.0, ""O"": 5.0, ""H"": 2.0}",143.994,#FFFFFF,orthorhombic,"{22,48,50}",591.0
Deanesmithite,Hg1+2Hg2+3S2O(CrO4),"{""Hg"": 5.0, ""S"": 2.0, ""O"": 5.0, ""Cr"": 1.0}",1199.061,#FFFFFF,triclinic,"{13,47}",2065.0
Decagonite,Al71Ni24Fe5,"{""Al"": 71.0, ""Ni"": 24.0, ""Fe"": 5.0}",3603.579,#7FFF00,unknown,{6},205.0
Decrespignyite-(Y),Y4Cu(CO3)4Cl(OH)5·2H2O,"{""Y"": 4.0, ""Cu"": 1.0, ""C"": 4.0, ""O"": 19.0, ""Cl"": 1.0, ""H"": 9.0}",815.717,#FFFFFF,hexagonal,{47},1998.0
Deerite,Fe2+6Fe3+3(Si6O17)O3(OH)5,"{""Fe"": 9.0, ""Si"": 6.0, ""O"": 25.0, ""H"": 5.0}",1076.13,#556B2F,monoclinic,"{32,39}",482.0
Dekatriasartorite,TlPb58As97S204,"{""Tl"": 1.0, ""Pb"": 58.0, ""As"": 97.0, ""S"": 204.0}",26029.654,#708090,monoclinic,{33},797.0
Delafossite,Cu1+Fe3+O2,"{""Cu"": 1.0, ""Fe"": 1.0, ""O"": 2.0}",151.389,#00BFFF,hexagonal,"{33,47}",2795.0
Delhayelite,K7Na3Ca5Al2Si14O38F4Cl2,"{""K"": 7.0, ""Na"": 3.0, ""Ca"": 5.0, ""Al"": 2.0, ""Si"": 14.0, ""O"": 38.0, ""F"": 4.0, ""Cl"": 2.0}",1745.054,#FFFFFF,orthorhombic,{35},726.0
Deliensite,Fe2+(UO2)2(SO4)2(OH)2·7H2O,"{""Fe"": 1.0, ""U"": 2.0, ""O"": 21.0, ""S"": 2.0, ""H"": 16.0}",948.132,#556B2F,orthorhombic,{47},1998.0
Dellagiustaite,V2+Al2O4,"{""V"": 1.0, ""Al"": 2.0, ""O"": 4.0}",168.902,#FFFFFF,cubic,"{9,33}",924.0
Dellaite,Ca6(Si2O7)(SiO4)(OH)2,"{""Ca"": 6.0, ""Si"": 3.0, ""O"": 13.0, ""H"": 2.0}",534.726,#FFFFFF,triclinic,{31},356.0
Deloryite,Cu4(UO2)Mo2O8(OH)6,"{""Cu"": 4.0, ""U"": 1.0, ""O"": 16.0, ""Mo"": 2.0, ""H"": 6.0}",946.146,#FFFFFF,monoclinic,{47},1998.0
Delrioite,Sr(VO3)2·4H2O,"{""Sr"": 1.0, ""V"": 2.0, ""O"": 10.0, ""H"": 8.0}",357.558,#FFFFFF,monoclinic,{55},264.0
Deltanitrogen,N,"{""N"": 1.0}",14.007,#FFFFFF,orthorhombic,{},1.0
Delvauxite,CaFe3+4(PO4)2(OH)8·4-5H2O,"{""Ca"": 1.0, ""Fe"": 4.0, ""P"": 2.0, ""O"": 21.0, ""H"": 18.0}",679.529,#556B2F,unknown,{47},1998.0
Demartinite,K2SiF6,"{""K"": 2.0, ""Si"": 1.0, ""F"": 6.0}",220.269,#FFFFFF,hexagonal,{45},424.0
Demesmaekerite,Pb2Cu5(UO2)2(Se4+O3)6(OH)6·2H2O,"{""Pb"": 2.0, ""Cu"": 5.0, ""U"": 2.0, ""O"": 30.0, ""Se"": 6.0, ""H"": 10.0}",2172.066,#FFFFFF,triclinic,{47},1998.0
Demicheleite-(Br),BiSBr,"{""Bi"": 1.0, ""S"": 1.0, ""Br"": 1.0}",320.944,#A9A9A9,orthorhombic,{11},36.0
Demicheleite-(Cl),BiSCl,"{""Bi"": 1.0, ""S"": 1.0, ""Cl"": 1.0}",276.49,#A9A9A9,orthorhombic,{11},36.0
Demicheleite-(I),BiSI,"{""Bi"": 1.0, ""S"": 1.0, ""I"": 1.0}",367.94,#A9A9A9,orthorhombic,{11},36.0
Dendoraite-(NH4),(NH4)2NaAl(C2O4)(PO3OH)2(H2O)2,"{""N"": 2.0, ""H"": 14.0, ""Na"": 1.0, ""Al"": 1.0, ""C"": 2.0, ""O"": 14.0, ""P"": 2.0}",402.054,#FFFFFF,monoclinic,"{52,55}",336.0
Denisovite,KCa2Si3O8F,"{""K"": 1.0, ""Ca"": 2.0, ""Si"": 3.0, ""O"": 8.0, ""F"": 1.0}",350.499,#FFFFFF,monoclinic,{35},726.0
Derbylite,Fe3+4Ti4+3Sb3+O13(OH),"{""Fe"": 4.0, ""Ti"": 3.0, ""Sb"": 1.0, ""O"": 14.0, ""H"": 1.0}",713.735,#556B2F,monoclinic,"{47,57}",2047.0
Derriksite,Cu4(UO2)(Se4+O3)2(OH)6,"{""Cu"": 4.0, ""U"": 1.0, ""O"": 14.0, ""Se"": 2.0, ""H"": 6.0}",880.19,#FFFFFF,orthorhombic,{47},1998.0
Dervillite,Ag2AsS2,"{""Ag"": 2.0, ""As"": 1.0, ""S"": 2.0}",354.782,#FFD700,monoclinic,{33},797.0
Destinezite,Fe3+2(PO4)(SO4)(OH)·6H2O,"{""Fe"": 2.0, ""P"": 1.0, ""O"": 15.0, ""S"": 1.0, ""H"": 13.0}",427.813,#556B2F,triclinic,{47},1998.0
Deveroite-(Ce),Ce2(C2O4)3·10H2O,"{""Ce"": 2.0, ""C"": 6.0, ""O"": 22.0, ""H"": 20.0}",724.444,#FFFFFF,monoclinic,{53},117.0
Devilliersite,Ca4Ca2Fe3+10O4[(Fe3+10Si2)O36],"{""Ca"": 6.0, ""Fe"": 20.0, ""O"": 40.0, ""Si"": 2.0}",2053.498,#556B2F,triclinic,{51},128.0
Devilline,CaCu4(SO4)2(OH)6·3H2O,"{""Ca"": 1.0, ""Cu"": 4.0, ""S"": 2.0, ""O"": 17.0, ""H"": 12.0}",642.461,#FFFFFF,monoclinic,"{47,55,56}",2405.0
Devitoite,Ba6Fe2+7Fe3+2(Si4O12)2(PO4)2(CO3)O2(OH)4,"{""Ba"": 6.0, ""Fe"": 9.0, ""Si"": 8.0, ""O"": 41.0, ""P"": 2.0, ""C"": 1.0, ""H"": 4.0}",2285.215,#556B2F,triclinic,{47},1998.0
Dewindtite,H2Pb3(UO2)6O4(PO4)4·12H2O,"{""H"": 26.0, ""Pb"": 3.0, ""U"": 6.0, ""O"": 44.0, ""P"": 4.0}",2903.84,#FFFFFF,orthorhombic,{47},1998.0
Diaboleite,CuPb2Cl2(OH)4,"{""Cu"": 1.0, ""Pb"": 2.0, ""Cl"": 2.0, ""O"": 4.0, ""H"": 4.0}",616.874,#FFFFFF,tetragonal,"{47,56}",2141.0
Diadochite,Fe3+2(PO4)(SO4)(OH)·6H2O,"{""Fe"": 2.0, ""P"": 1.0, ""O"": 15.0, ""S"": 1.0, ""H"": 13.0}",427.813,#556B2F,unknown,"{21,31,47,50,52,54}",3012.0
Diamond,C,"{""C"": 1.0}",12.011,#FFFFFF,orthorhombic,"{1,6,26,30,38}",601.0
Diaoyudaoite,NaAl11O17,"{""Na"": 1.0, ""Al"": 11.0, ""O"": 17.0}",591.775,#FFFFFF,hexagonal,"{51,56}",271.0
Diaphorite,Ag3Pb2Sb3S8,"{""Ag"": 3.0, ""Pb"": 2.0, ""Sb"": 3.0, ""S"": 8.0}",1359.77,#708090,monoclinic,{33},797.0
Diaspore,AlO(OH),"{""Al"": 1.0, ""O"": 2.0, ""H"": 1.0}",59.988,#FFFFFF,orthorhombic,"{22,48}",318.0
Dickite,Al2Si2O5(OH)4,"{""Al"": 2.0, ""Si"": 2.0, ""O"": 9.0, ""H"": 4.0}",258.157,#FFFFFF,monoclinic,"{16,28,40}",412.0
Dickthomssenite,MgV2O6·7H2O,"{""Mg"": 1.0, ""V"": 2.0, ""O"": 13.0, ""H"": 14.0}",348.288,#FFFFFF,monoclinic,{47},1998.0
Diegogattaite,Na2CaCu2Si8O20·H2O,"{""Na"": 2.0, ""Ca"": 1.0, ""Cu"": 2.0, ""Si"": 8.0, ""O"": 21.0, ""H"": 2.0}",775.825,#FFFFFF,monoclinic,{22},247.0
Dienerite,Ni3As,"{""Ni"": 3.0, ""As"": 1.0}",251.001,#7FFF00,unknown,{33},797.0
Dietzeite,Ca2(IO3)2(CrO4)·H2O,"{""Ca"": 2.0, ""I"": 2.0, ""O"": 11.0, ""Cr"": 1.0, ""H"": 2.0}",563.957,#FFFFFF,monoclinic,{25},210.0
Dimorphite,As4S3,"{""As"": 4.0, ""S"": 3.0}",395.868,#FFD700,orthorhombic,"{11,47}",2034.0
Dinilawiite,[Pb4OAl(OH)6]2(S2O3)2·(S2O3)(H2O)5,"{""Pb"": 8.0, ""O"": 28.0, ""Al"": 2.0, ""H"": 22.0, ""S"": 6.0}",2374.072,#FFFFFF,monoclinic,{},1.0
Dinite,C20H36,"{""C"": 20.0, ""H"": 36.0}",276.508,#FFFFFF,orthorhombic,{53},117.0
Diopside,CaMgSi2O6,"{""Ca"": 1.0, ""Mg"": 1.0, ""Si"": 2.0, ""O"": 6.0}",216.547,#FFFFFF,monoclinic,"{6,7,20,31,35,36,37,38,40,50,54}",2815.0
Dioptase,CuSiO3·H2O,"{""Cu"": 1.0, ""Si"": 1.0, ""O"": 4.0, ""H"": 2.0}",157.643,#FFFFFF,hexagonal,{47},1998.0
Dioskouriite,CaCu4Cl6(OH)4·4H2O,"{""Ca"": 1.0, ""Cu"": 4.0, ""Cl"": 6.0, ""O"": 8.0, ""H"": 12.0}",647.05,#FFFFFF,orthorhombic,{45},424.0
Direnzoite,NaK6MgCa2(Al13Si47)O120·36H2O,"{""Na"": 1.0, ""K"": 6.0, ""Mg"": 1.0, ""Ca"": 2.0, ""Al"": 13.0, ""Si"": 47.0, ""O"": 156.0, ""H"": 72.0}",4601.22,#FFFFFF,orthorhombic,{10},107.0
Dissakisite-(Ce),CaCe(Al2Mg)[Si2O7][SiO4]O(OH),"{""Ca"": 1.0, ""Ce"": 1.0, ""Al"": 2.0, ""Mg"": 1.0, ""Si"": 3.0, ""O"": 13.0, ""H"": 1.0}",551.717,#FFFFFF,monoclinic,"{8,19,34,35}",1526.0
Dissakisite-(La),CaLa(Al2Mg)[Si2O7][SiO4]O(OH),"{""Ca"": 1.0, ""La"": 1.0, ""Al"": 2.0, ""Mg"": 1.0, ""Si"": 3.0, ""O"": 13.0, ""H"": 1.0}",550.507,#FFFFFF,monoclinic,"{8,19,35}",962.0
Dittmarite,(NH4)Mg(PO4)·H2O,"{""N"": 1.0, ""H"": 6.0, ""Mg"": 1.0, ""P"": 1.0, ""O"": 5.0}",155.329,#FFFFFF,orthorhombic,{52},72.0
Djurleite,Cu31S16,"{""Cu"": 31.0, ""S"": 16.0}",2482.886,#A9A9A9,monoclinic,"{12,15,33,47}",2956.0
Dmisokolovite,K3Cu5AlO2(AsO4)4,"{""K"": 3.0, ""Cu"": 5.0, ""Al"": 1.0, ""O"": 18.0, ""As"": 4.0}",1049.676,#FFFFFF,monoclinic,{45},424.0
Dmisteinbergite,Ca(Al2Si2O8),"{""Ca"": 1.0, ""Al"": 2.0, ""Si"": 2.0, ""O"": 8.0}",278.204,#FFFFFF,hexagonal,"{3,6,50,54}",760.0
Dmitryivanovite,CaAl2O4,"{""Ca"": 1.0, ""Al"": 2.0, ""O"": 4.0}",158.038,#FFFFFF,monoclinic,{6},205.0
Dmitryvarlamovite,Ti2(Fe3+Nb)O8,"{""Ti"": 2.0, ""Fe"": 1.0, ""Nb"": 1.0, ""O"": 8.0}",372.477,#556B2F,orthorhombic,{},1.0
Dobrovolskyite,Na4Ca(SO4)3,"{""Na"": 4.0, ""Ca"": 1.0, ""S"": 3.0, ""O"": 12.0}",420.206,#FFFFFF,hexagonal,{45},424.0
Dobsinaite,Ca2Ca(AsO4)2·2H2O,"{""Ca"": 3.0, ""As"": 2.0, ""O"": 10.0, ""H"": 4.0}",434.1,#FFFFFF,monoclinic,{47},1998.0
Dokuchaevite,Cu8O2(VO4)3Cl3,"{""Cu"": 8.0, ""O"": 14.0, ""V"": 3.0, ""Cl"": 3.0}",991.53,#FFFFFF,triclinic,{45},424.0
Dolerophanite,Cu2O(SO4),"{""Cu"": 2.0, ""O"": 5.0, ""S"": 1.0}",239.147,#00BFFF,monoclinic,"{45,50,54}",931.0
Dollaseite-(Ce),CaCe(Mg2Al)[Si2O7][SiO4]F(OH),"{""Ca"": 1.0, ""Ce"": 1.0, ""Mg"": 2.0, ""Al"": 1.0, ""Si"": 3.0, ""O"": 12.0, ""F"": 1.0, ""H"": 1.0}",552.039,#FFFFFF,monoclinic,"{31,40}",675.0
Dolomite,CaMg(CO3)2,"{""Ca"": 1.0, ""Mg"": 1.0, ""C"": 2.0, ""O"": 6.0}",184.399,#FFFFFF,hexagonal,"{6,21,23,24,25,31,32,36,40,44,47,49,53}",4547.0
Doloresite,V4+3O4(OH)4,"{""V"": 3.0, ""O"": 8.0, ""H"": 4.0}",284.85,#FFFFFF,monoclinic,{47},1998.0
Domerockite,Cu4(AsO4)(AsO3OH)(OH)3·H2O,"{""Cu"": 4.0, ""As"": 2.0, ""O"": 12.0, ""H"": 6.0}",602.064,#FFFFFF,triclinic,{47},1998.0
Domeykite,Cu3As,"{""Cu"": 3.0, ""As"": 1.0}",265.56,#00BFFF,cubic,{33},797.0
Dondoellite,Ca2Fe(PO4)2·2H2O,"{""Ca"": 2.0, ""Fe"": 1.0, ""P"": 2.0, ""O"": 10.0, ""H"": 4.0}",361.971,#556B2F,triclinic,{22},247.0
Donharrisite,Ni3HgS3,"{""Ni"": 3.0, ""Hg"": 1.0, ""S"": 3.0}",472.849,#A9A9A9,monoclinic,{33},797.0
Donnayite-(Y),NaSr3CaY(CO3)6·3H2O,"{""Na"": 1.0, ""Sr"": 3.0, ""Ca"": 1.0, ""Y"": 1.0, ""C"": 6.0, ""O"": 21.0, ""H"": 6.0}",828.927,#FFFFFF,hexagonal,{35},726.0
Donowensite,Ca(H2O)3Fe3+2(V2O7)2,"{""Ca"": 1.0, ""H"": 6.0, ""O"": 17.0, ""Fe"": 2.0, ""V"": 4.0}",633.567,#556B2F,triclinic,{47},1998.0
Donwilhelmsite,CaAl4Si2O11,"{""Ca"": 1.0, ""Al"": 4.0, ""Si"": 2.0, ""O"": 11.0}",380.165,#FFFFFF,hexagonal,"{6,39}",275.0
Dorallcharite,TlFe3+3(SO4)2(OH)6,"{""Tl"": 1.0, ""Fe"": 3.0, ""S"": 2.0, ""O"": 14.0, ""H"": 6.0}",666.069,#556B2F,hexagonal,{47},1998.0
Dorfmanite,Na2(PO3OH)·2H2O,"{""Na"": 2.0, ""P"": 1.0, ""O"": 6.0, ""H"": 5.0}",177.988,#FFFFFF,orthorhombic,"{34,47}",2562.0
Dorrite,Ca4[Mg3Fe3+9]O4[Si3Al8Fe3+O36],"{""Ca"": 4.0, ""Mg"": 3.0, ""Fe"": 10.0, ""O"": 40.0, ""Si"": 3.0, ""Al"": 8.0}",1731.748,#556B2F,triclinic,"{47,50,51,54,56}",2776.0
Douglasite,K2Fe2+Cl4·2H2O,"{""K"": 2.0, ""Fe"": 1.0, ""Cl"": 4.0, ""H"": 4.0, ""O"": 2.0}",311.871,#556B2F,unknown,{25},210.0
Dovyrenite,Ca6Zr(Si2O7)2(OH)4,"{""Ca"": 6.0, ""Zr"": 1.0, ""Si"": 4.0, ""O"": 18.0, ""H"": 4.0}",736.046,#FFFFFF,orthorhombic,{35},726.0
Downeyite,SeO2,"{""Se"": 1.0, ""O"": 2.0}",110.969,#FFFFFF,tetragonal,"{45,50,54}",931.0
Downsite,K2(MoO3)3(SO4)·4H2O,"{""K"": 2.0, ""Mo"": 3.0, ""O"": 17.0, ""S"": 1.0, ""H"": 8.0}",678.153,#FFFFFF,monoclinic,{},1.0
Doyleite,Al(OH)3,"{""Al"": 1.0, ""O"": 3.0, ""H"": 3.0}",78.003,#FFFFFF,triclinic,"{22,34}",811.0
Dozyite,Mg7Al2(Si4Al2)O15(OH)12,"{""Mg"": 7.0, ""Al"": 4.0, ""Si"": 4.0, ""O"": 27.0, ""H"": 12.0}",834.472,#FFFFFF,monoclinic,"{25,40}",529.0
Dravertite,CuMg(SO4)2,"{""Cu"": 1.0, ""Mg"": 1.0, ""S"": 2.0, ""O"": 8.0}",279.963,#FFFFFF,monoclinic,{45},424.0
Dravite,NaMg3Al6(Si6O18)(BO3)3(OH)3(OH),"{""Na"": 1.0, ""Mg"": 3.0, ""Al"": 6.0, ""Si"": 6.0, ""O"": 31.0, ""B"": 3.0, ""H"": 4.0}",958.738,#FFFFFF,triclinic,"{19,23,26,34,40}",1674.0
Dresserite,Ba2Al4(CO3)4(OH)8·3H2O,"{""Ba"": 2.0, ""Al"": 4.0, ""C"": 4.0, ""O"": 23.0, ""H"": 14.0}",812.721,#FFFFFF,orthorhombic,"{26,31}",606.0
Dreyerite,Bi(VO4),"{""Bi"": 1.0, ""V"": 1.0, ""O"": 4.0}",323.918,#D2B48C,tetragonal,"{9,53}",244.0
Driekopite,PtBi,"{""Pt"": 1.0, ""Bi"": 1.0}",404.06,#D2B48C,hexagonal,{},1.0
Dritsite,Li2Al4(OH)12Cl2·3H2O,"{""Li"": 2.0, ""Al"": 4.0, ""O"": 15.0, ""H"": 18.0, ""Cl"": 2.0}",450.837,#FFFFFF,hexagonal,{23},398.0
Drobecite,Cd(SO4)·4H2O,"{""Cd"": 1.0, ""S"": 1.0, ""O"": 8.0, ""H"": 8.0}",280.526,#FFFFFF,monoclinic,{47},1998.0
Droninoite,Ni6Fe3+2(OH)16Cl2·4H2O,"{""Ni"": 6.0, ""Fe"": 2.0, ""O"": 20.0, ""H"": 24.0, ""Cl"": 2.0}",878.92,#556B2F,hexagonal,{47},1998.0
Drugmanite,Pb2Fe3+(PO4)(PO3OH)(OH)2,"{""Pb"": 2.0, ""Fe"": 1.0, ""P"": 2.0, ""O"": 10.0, ""H"": 3.0}",695.207,#556B2F,monoclinic,{47},1998.0
Drysdallite,MoSe2,"{""Mo"": 1.0, ""Se"": 2.0}",253.892,#FFFFFF,hexagonal,{33},797.0
Dubinskaite,Ca4Sc2Al4[Be2Si8O30](OH)2,"{""Ca"": 4.0, ""Sc"": 2.0, ""Al"": 4.0, ""Be"": 2.0, ""Si"": 8.0, ""O"": 32.0, ""H"": 2.0}",1114.8404,#FFFFFF,triclinic,{},1.0
Dufrenoysite,Pb2As2S5,"{""Pb"": 2.0, ""As"": 2.0, ""S"": 5.0}",724.544,#708090,monoclinic,{33},797.0
Duftite,PbCu(AsO4)(OH),"{""Pb"": 1.0, ""Cu"": 1.0, ""As"": 1.0, ""O"": 5.0, ""H"": 1.0}",426.671,#FFFFFF,orthorhombic,{47},1998.0
Dukeite,Bi3+24Cr6+8O57(OH)6·3H2O,"{""Bi"": 24.0, ""Cr"": 8.0, ""O"": 66.0, ""H"": 12.0}",6499.518,#FFFFFF,hexagonal,{47},1998.0
Dulanggouite,Bi6Te3,"{""Bi"": 6.0, ""Te"": 3.0}",1636.68,#D2B48C,hexagonal,{},1.0
Dumontite,Pb2(UO2)3O2(PO4)2·5H2O,"{""Pb"": 2.0, ""U"": 3.0, ""O"": 21.0, ""P"": 2.0, ""H"": 10.0}",1536.497,#FFFFFF,monoclinic,{47},1998.0
Dumortierite,AlAl6BSi3O18,"{""Al"": 7.0, ""B"": 1.0, ""Si"": 3.0, ""O"": 18.0}",571.921,#FFFFFF,orthorhombic,"{23,40}",717.0
Dundasite,PbAl2(CO3)2(OH)4·H2O,"{""Pb"": 1.0, ""Al"": 2.0, ""C"": 2.0, ""O"": 11.0, ""H"": 6.0}",467.223,#FFFFFF,orthorhombic,{47},1998.0
Durangite,NaAl(AsO4)F,"{""Na"": 1.0, ""Al"": 1.0, ""As"": 1.0, ""O"": 4.0, ""F"": 1.0}",207.888,#FFFFFF,monoclinic,"{20,34,45}",1033.0
Duranusite,As4S,"{""As"": 4.0, ""S"": 1.0}",331.748,#FFD700,orthorhombic,{33},797.0
Dussertite,BaFe3+3(AsO4)(AsO3OH)(OH)6,"{""Ba"": 1.0, ""Fe"": 3.0, ""As"": 2.0, ""O"": 14.0, ""H"": 7.0}",685.751,#556B2F,hexagonal,"{34,47,48}",2633.0
Duttonite,V4+O(OH)2,"{""V"": 1.0, ""O"": 3.0, ""H"": 2.0}",100.955,#FFFFFF,monoclinic,{47},1998.0
Dwornikite,Ni(SO4)·H2O,"{""Ni"": 1.0, ""S"": 1.0, ""O"": 5.0, ""H"": 2.0}",172.764,#FFFFFF,monoclinic,{47},1998.0
Dymkovite,Ni(UO2)2(As3+O3)2·7H2O,"{""Ni"": 1.0, ""U"": 2.0, ""O"": 17.0, ""As"": 2.0, ""H"": 14.0}",970.692,#FFFFFF,monoclinic,{47},1998.0
Dypingite,Mg5(CO3)4(OH)2·5H2O,"{""Mg"": 5.0, ""C"": 4.0, ""O"": 19.0, ""H"": 12.0}",485.646,#FFFFFF,unknown,"{13,47,55}",2329.0
Dzharkenite,FeSe2,"{""Fe"": 1.0, ""Se"": 2.0}",213.787,#8B4513,cubic,{33},797.0
Dzierzanowskite,CaCu2S2,"{""Ca"": 1.0, ""Cu"": 2.0, ""S"": 2.0}",231.29,#A9A9A9,hexagonal,{51},128.0
Earlandite,Ca3(C6H5O7)2·4H2O,"{""Ca"": 3.0, ""C"": 12.0, ""H"": 18.0, ""O"": 18.0}",570.492,#FFFFFF,triclinic,"{17,49}",128.0
Eastonite,KAlMg2(Si2Al2)O10(OH)2,"{""K"": 1.0, ""Al"": 3.0, ""Mg"": 2.0, ""Si"": 2.0, ""O"": 12.0, ""H"": 2.0}",418.828,#FFFFFF,monoclinic,"{31,35,36,40}",1692.0
Ecdemite,Pb6As3+2O7Cl4,"{""Pb"": 6.0, ""As"": 2.0, ""O"": 7.0, ""Cl"": 4.0}",1646.837,#FFFFFF,tetragonal,"{32,47,56}",2553.0
Eckerite,Ag2CuAsS3,"{""Ag"": 2.0, ""Cu"": 1.0, ""As"": 1.0, ""S"": 3.0}",450.388,#FFD700,monoclinic,{33},797.0
Eckermannite,NaNa2(Mg4Al)Si8O22(OH)2,"{""Na"": 3.0, ""Mg"": 4.0, ""Al"": 1.0, ""Si"": 8.0, ""O"": 24.0, ""H"": 2.0}",803.844,#FFFFFF,monoclinic,"{17,35,36}",1068.0
Ecrinsite,AgTl3Pb4As11Sb9S36,"{""Ag"": 1.0, ""Tl"": 3.0, ""Pb"": 4.0, ""As"": 11.0, ""Sb"": 9.0, ""S"": 36.0}",4623.952,#708090,triclinic,{33},797.0
Eddavidite,Cu12Pb2O15Br2,"{""Cu"": 12.0, ""Pb"": 2.0, ""O"": 15.0, ""Br"": 2.0}",1576.745,#FFFFFF,cubic,{47},1998.0
Edenharterite,TlPbAs3S6,"{""Tl"": 1.0, ""Pb"": 1.0, ""As"": 3.0, ""S"": 6.0}",828.706,#708090,orthorhombic,{33},797.0
Edenite,NaCa2Mg5(Si7Al)O22(OH)2,"{""Na"": 1.0, ""Ca"": 2.0, ""Mg"": 5.0, ""Si"": 7.0, ""Al"": 1.0, ""O"": 24.0, ""H"": 2.0}",834.24,#FFFFFF,monoclinic,"{8,10,12,16,19,20,26,31,34,35,40}",2815.0
Edgarbaileyite,Hg1+6Si2O7,"{""Hg"": 6.0, ""Si"": 2.0, ""O"": 7.0}",1371.703,#FFFFFF,monoclinic,"{33,47}",2795.0
Edgarite,FeNb3S6,"{""Fe"": 1.0, ""Nb"": 3.0, ""S"": 6.0}",526.923,#DAA520,hexagonal,"{33,35}",1523.0
Edgrewite,Ca9(SiO4)4F2,"{""Ca"": 9.0, ""Si"": 4.0, ""O"": 16.0, ""F"": 2.0}",767.022,#FFFFFF,monoclinic,"{9,51}",255.0
Edingtonite,Ba(Si3Al2)O10·4H2O,"{""Ba"": 1.0, ""Si"": 3.0, ""Al"": 2.0, ""O"": 14.0, ""H"": 8.0}",507.599,#FFFFFF,orthorhombic,"{32,35,36}",1429.0
Edoylerite,Hg2+3(Cr6+O4)S2,"{""Hg"": 3.0, ""Cr"": 1.0, ""O"": 4.0, ""S"": 2.0}",781.882,#FFFFFF,monoclinic,"{13,47}",2065.0
Edscottite,Fe5C2,"{""Fe"": 5.0, ""C"": 2.0}",303.247,#8B4513,monoclinic,{5},94.0
Edtollite,K2NaCu5Fe3+O2(AsO4)4,"{""K"": 2.0, ""Na"": 1.0, ""Cu"": 5.0, ""Fe"": 1.0, ""O"": 18.0, ""As"": 4.0}",1062.431,#556B2F,triclinic,{45},424.0
Edwardsite,Cu3Cd2(SO4)2(OH)6·4H2O,"{""Cu"": 3.0, ""Cd"": 2.0, ""S"": 2.0, ""O"": 18.0, ""H"": 14.0}",781.672,#FFFFFF,monoclinic,{47},1998.0
Edwindavisite,Cu(C2O4)(NH3),"{""Cu"": 1.0, ""C"": 2.0, ""O"": 4.0, ""N"": 1.0, ""H"": 3.0}",168.595,#FFFFFF,orthorhombic,{},1.0
Effenbergerite,BaCuSi4O10,"{""Ba"": 1.0, ""Cu"": 1.0, ""Si"": 4.0, ""O"": 10.0}",473.206,#FFFFFF,tetragonal,{32},412.0
Efremovite,(NH4)2Mg2(SO4)3,"{""N"": 2.0, ""H"": 8.0, ""Mg"": 2.0, ""S"": 3.0, ""O"": 12.0}",372.856,#FFFFFF,cubic,"{45,50,54}",931.0
Eglestonite,([Hg1+]2)3OCl3(OH),"{""Hg"": 6.0, ""O"": 2.0, ""Cl"": 3.0, ""H"": 1.0}",1342.896,#FFFFFF,cubic,{47},1998.0
Ehrigite,Bi8Te3,"{""Bi"": 8.0, ""Te"": 3.0}",2054.64,#D2B48C,hexagonal,{},1.0
Eifelite,KNa2(MgNa)(Mg3Si12)O30,"{""K"": 1.0, ""Na"": 3.0, ""Mg"": 4.0, ""Si"": 12.0, ""O"": 30.0}",1022.278,#FFFFFF,hexagonal,"{35,40}",1045.0
Eirikite,KNa6Be2(Si15Al3)O39F2,"{""K"": 1.0, ""Na"": 6.0, ""Be"": 2.0, ""Si"": 15.0, ""Al"": 3.0, ""O"": 39.0, ""F"": 2.0}",1359.2404,#FFFFFF,hexagonal,{35},726.0
Eitelite,Na2Mg(CO3)2,"{""Na"": 2.0, ""Mg"": 1.0, ""C"": 2.0, ""O"": 6.0}",190.301,#FFFFFF,hexagonal,"{24,35,36}",1091.0
Ekanite,Ca2ThSi8O20,"{""Ca"": 2.0, ""Th"": 1.0, ""Si"": 8.0, ""O"": 20.0}",856.856,#FFFFFF,tetragonal,"{9,26,35}",1103.0
Ekaterinite,Ca2B4O7Cl2·2H2O,"{""Ca"": 2.0, ""B"": 4.0, ""O"": 9.0, ""Cl"": 2.0, ""H"": 4.0}",342.319,#FFFFFF,hexagonal,"{23,31}",754.0
Ekebergite,ThFeNb2O8,"{""Th"": 1.0, ""Fe"": 1.0, ""Nb"": 2.0, ""O"": 8.0}",601.689,#556B2F,monoclinic,{34},564.0
Elaliite,(Fe2+8Fe3+)(PO4)O8,"{""Fe"": 9.0, ""P"": 1.0, ""O"": 12.0}",725.567,#8B4513,orthorhombic,{},1.0
Elasmochloite,Na3Cu6BiO4(SO4)5,"{""Na"": 3.0, ""Cu"": 6.0, ""Bi"": 1.0, ""O"": 24.0, ""S"": 5.0}",1203.502,#FFFFFF,monoclinic,{45},424.0
Eldfellite,NaFe3+(SO4)2,"{""Na"": 1.0, ""Fe"": 1.0, ""S"": 2.0, ""O"": 8.0}",270.947,#556B2F,monoclinic,{45},424.0
Eldragonite,Cu6BiSe4(Se2),"{""Cu"": 6.0, ""Bi"": 1.0, ""Se"": 6.0}",1064.082,#00BFFF,orthorhombic,{33},797.0
Eleomelanite,(K2Pb)Cu4O2(SO4)4,"{""K"": 2.0, ""Pb"": 1.0, ""Cu"": 4.0, ""O"": 18.0, ""S"": 4.0}",955.802,#FFFFFF,monoclinic,{45},424.0
Elgoresyite,(Mg5Si2)O9,"{""Mg"": 5.0, ""Si"": 2.0, ""O"": 9.0}",321.686,#FFFFFF,monoclinic,{6},205.0