name,formula,elements,density,color,crystal,pm_ids,gacha_weight
Mikasaite,Fe3+2(SO4)3,"{""Fe"": 2.0, ""S"": 3.0, ""O"": 12.0}",399.858,#8B4513,hexagonal,{54},8.55e-10
Mikecoxite,[CHg4]OCl2,"{""C"": 1.0, ""Hg"": 4.0, ""O"": 1.0, ""Cl"": 2.0}",901.27,#FFFFFF,monoclinic,{53},8.547e-08
Mikehowardite,Fe3+4(V5+O4)4(H2O)2·H2O,"{""Fe"": 4.0, ""V"": 4.0, ""O"": 19.0, ""H"": 6.0}",737.177,#556B2F,triclinic,{47},1.5015e-07
Mikenewite,Mn2+(S4+O3)·3H2O,"{""Mn"": 1.0, ""S"": 1.0, ""O"": 6.0, ""H"": 6.0}",189.04,#FFFFFF,monoclinic,{},2e-08
Milarite,KCa2(Be2AlSi12)O30·H2O,"{""K"": 1.0, ""Ca"": 2.0, ""Be"": 2.0, ""Al"": 1.0, ""Si"": 12.0, ""O"": 31.0, ""H"": 2.0}",999.2654,#FFFFFF,hexagonal,"{19,23,34}",3.6741559e-05
Milkovoite,Cu4O(PO4)(AsO4),"{""Cu"": 4.0, ""O"": 9.0, ""P"": 1.0, ""As"": 1.0}",504.071,#FFFFFF,orthorhombic,{47},1.5015e-08
Millerite,NiS,"{""Ni"": 1.0, ""S"": 1.0}",90.753,#A9A9A9,hexagonal,"{11,12,13,15,33,36,37,38,50}",2.1345e-08
Millisite,NaCaAl6(PO4)4(OH)9·3H2O,"{""Na"": 1.0, ""Ca"": 1.0, ""Al"": 6.0, ""P"": 4.0, ""O"": 28.0, ""H"": 15.0}",811.948,#FFFFFF,unknown,"{21,22,47}",3.1722e-08
Millosevichite,Al2(SO4)3,"{""Al"": 2.0, ""S"": 3.0, ""O"": 12.0}",342.132,#FFFF00,hexagonal,"{45,50,54}",2.059e-09
Millsite,CuTeO3·2H2O,"{""Cu"": 1.0, ""Te"": 1.0, ""O"": 5.0, ""H"": 4.0}",275.173,#FFFFFF,monoclinic,{47},1.5015e-07
Milotaite,PdSbSe,"{""Pd"": 1.0, ""Sb"": 1.0, ""Se"": 1.0}",307.151,#A9A9A9,cubic,{33},1.2547e-08
Mimetite,Pb5(AsO4)3Cl,"{""Pb"": 5.0, ""As"": 3.0, ""O"": 12.0, ""Cl"": 1.0}",1488.204,#FFFFFF,monoclinic,"{45,47}",1.73735e-07
Minakawaite,RhSb,"{""Rh"": 1.0, ""Sb"": 1.0}",224.67,#A9A9A9,orthorhombic,{33},1.2547e-08
Minasragrite,V4+O(SO4)·5H2O,"{""V"": 1.0, ""O"": 10.0, ""S"": 1.0, ""H"": 10.0}",253.072,#FFFFFF,monoclinic,"{47,53}",4.712e-09
Mineevite-(Y),Na25BaY2(CO3)11(HCO3)4(SO4)2F2Cl,"{""Na"": 25.0, ""Ba"": 1.0, ""Y"": 2.0, ""C"": 15.0, ""O"": 53.0, ""H"": 4.0, ""S"": 2.0, ""F"": 2.0, ""Cl"": 1.0}",2059.602,#FFFFFF,hexagonal,"{35,47}",3.278e-09
Minguzzite,K3Fe3+(C2O4)3·3H2O,"{""K"": 3.0, ""Fe"": 1.0, ""C"": 6.0, ""O"": 15.0, ""H"": 6.0}",491.238,#556B2F,monoclinic,{53},8.547e-08
Minium,Pb2+2Pb4+O4,"{""Pb"": 3.0, ""O"": 4.0}",685.596,#FFFFFF,orthorhombic,"{47,55,56}",2.57959e-07
Minjiangite,BaBe2(PO4)2,"{""Ba"": 1.0, ""Be"": 2.0, ""P"": 2.0, ""O"": 8.0}",345.2944,#FFFFFF,hexagonal,{34},1.773e-09
Minnesotaite,Fe2+3Si4O10(OH)2,"{""Fe"": 3.0, ""Si"": 4.0, ""O"": 12.0, ""H"": 2.0}",473.879,#556B2F,triclinic,{40},1.7868339e-05
Minrecordite,CaZn(CO3)2,"{""Ca"": 1.0, ""Zn"": 1.0, ""C"": 2.0, ""O"": 6.0}",225.474,#FFFFFF,hexagonal,{23},1.758794e-06
Minyulite,KAl2(PO4)2F·4H2O,"{""K"": 1.0, ""Al"": 2.0, ""P"": 2.0, ""O"": 12.0, ""F"": 1.0, ""H"": 8.0}",374.06,#FFFFFF,orthorhombic,"{31,47}",8.912e-09
Mirabilite,Na2(SO4)·10H2O,"{""Na"": 2.0, ""S"": 1.0, ""O"": 14.0, ""H"": 20.0}",322.186,#FFFFFF,monoclinic,"{21,25,45,46,47,55}",1.1562e-08
Mirnyite,SrZr4+(Ti4+12Cr3+6)Mg2O38,"{""Sr"": 1.0, ""Zr"": 1.0, ""Ti"": 12.0, ""Cr"": 6.0, ""Mg"": 2.0, ""O"": 38.0}",1721.796,#FFFFFF,hexagonal,{7},2.439e-08
Misakiite,Cu3Mn(OH)6Cl2,"{""Cu"": 3.0, ""Mn"": 1.0, ""O"": 6.0, ""H"": 6.0, ""Cl"": 2.0}",418.518,#FFFFFF,hexagonal,{47},7.508e-09
Misenite,K8(SO4)(SO3OH)6,"{""K"": 8.0, ""S"": 7.0, ""O"": 28.0, ""H"": 6.0}",991.224,#FFFFFF,unknown,{45},4.72e-10
Mitridatite,Ca2Fe3+3O2(PO4)3·3H2O,"{""Ca"": 2.0, ""Fe"": 3.0, ""O"": 17.0, ""P"": 3.0, ""H"": 6.0}",618.644,#556B2F,monoclinic,"{21,47,48,52,53}",6.4194e-08
Mitrofanovite,Pt3Te4,"{""Pt"": 3.0, ""Te"": 4.0}",1095.64,#FFFFFF,hexagonal,{37},7.4074e-08
Mitscherlichite,K2CuCl4·2H2O,"{""K"": 2.0, ""Cu"": 1.0, ""Cl"": 4.0, ""H"": 4.0, ""O"": 2.0}",319.572,#FFFFFF,tetragonal,"{45,47}",1.73735e-07
Mixite,Cu6Bi(AsO4)3(OH)6·3H2O,"{""Cu"": 6.0, ""Bi"": 1.0, ""As"": 3.0, ""O"": 21.0, ""H"": 12.0}",1163.097,#FFFFFF,hexagonal,{47},1.5015e-07
Mizraite-(Ce),Ce(Al11Mg)O19,"{""Ce"": 1.0, ""Al"": 11.0, ""Mg"": 1.0, ""O"": 19.0}",765.208,#FFFFFF,hexagonal,{51},7.8125e-08
Moabite,NiFe3+(PO4)O,"{""Ni"": 1.0, ""Fe"": 1.0, ""P"": 1.0, ""O"": 5.0}",225.507,#556B2F,orthorhombic,{51},7.812e-09
Moctezumite,Pb(UO2)(Te4+O3)2,"{""Pb"": 1.0, ""U"": 1.0, ""O"": 8.0, ""Te"": 2.0}",828.422,#FFFFFF,monoclinic,{47},1.5015e-07
Modderite,CoAs,"{""Co"": 1.0, ""As"": 1.0}",133.855,#4169E1,orthorhombic,"{26,33}",5.2547e-08
Moeloite,Pb6Sb6S14(S)3,"{""Pb"": 6.0, ""Sb"": 6.0, ""S"": 17.0}",2518.78,#708090,orthorhombic,{33},2.51e-10
Mohite,Cu2SnS3,"{""Cu"": 2.0, ""Sn"": 1.0, ""S"": 3.0}",341.982,#A9A9A9,triclinic,{33},2.51e-10
Mohnite,(NH4)K2Na(SO4)2,"{""N"": 1.0, ""H"": 4.0, ""K"": 2.0, ""Na"": 1.0, ""S"": 2.0, ""O"": 8.0}",311.337,#FFFFFF,hexagonal,"{49,52}",5.375e-09
Mohrite,(NH4)2Fe2+(SO4)2·6H2O,"{""N"": 2.0, ""H"": 20.0, ""Fe"": 1.0, ""S"": 2.0, ""O"": 14.0}",392.125,#556B2F,monoclinic,{45},4.72e-10
Moiraite,Pb12Sb8As8S36,"{""Pb"": 12.0, ""Sb"": 8.0, ""As"": 8.0, ""S"": 36.0}",5214.016,#708090,triclinic,{},2e-08
Moissanite,SiC,"{""Si"": 1.0, ""C"": 1.0}",40.096,#FFFFFF,cubic,"{1,7,26,29,35,36,38,39}",2.288006e-06
Mojaveite,Cu6[Te6+O4(OH)2](OH)7Cl,"{""Cu"": 6.0, ""Te"": 1.0, ""O"": 13.0, ""H"": 9.0, ""Cl"": 1.0}",761.385,#FFFFFF,hexagonal,"{47,55}",1.88029e-07
Molinelloite,Cu(H2O)(OH)V4+O(V5+O4),"{""Cu"": 1.0, ""H"": 3.0, ""O"": 7.0, ""V"": 2.0}",280.447,#FFFFFF,triclinic,{47},1.5015e-07
Moluranite,H4U4+(UO2)3(MoO4)7·18H2O,"{""H"": 40.0, ""U"": 4.0, ""O"": 52.0, ""Mo"": 7.0}",2496.038,#FFFFFF,unknown,{47},1.5015e-07
Molybdenite,MoS2,"{""Mo"": 1.0, ""S"": 2.0}",160.07,#A9A9A9,hexagonal,"{6,12,19,31,33,34,36,37,38,51}",7.08577e-07
Molybdite,MoO3,"{""Mo"": 1.0, ""O"": 3.0}",143.947,#FFFFFF,orthorhombic,"{45,47,50,54}",2.531e-07
Molybdofornacite,CuPb2(MoO4)(AsO4)(OH),"{""Cu"": 1.0, ""Pb"": 2.0, ""Mo"": 1.0, ""O"": 9.0, ""As"": 1.0, ""H"": 1.0}",793.817,#FFFFFF,monoclinic,{47},1.5015e-07
Molybdomenite,PbSe4+O3,"{""Pb"": 1.0, ""Se"": 1.0, ""O"": 3.0}",334.168,#FFFFFF,monoclinic,{47},1.5015e-07
Molybdophyllite,Pb8Mg9[Si10O28(OH)8O2(CO3)3]·H2O,"{""Pb"": 8.0, ""Mg"": 9.0, ""Si"": 10.0, ""O"": 48.0, ""H"": 10.0, ""C"": 3.0}",2971.26,#FFFFFF,monoclinic,"{31,47}",1.7824e-07
Molysite,FeCl3,"{""Fe"": 1.0, ""Cl"": 3.0}",162.195,#8B4513,hexagonal,"{45,50,54}",1.0295e-07
Momoiite,Mn2+3V3+2(SiO4)3,"{""Mn"": 3.0, ""V"": 2.0, ""Si"": 3.0, ""O"": 12.0}",542.941,#FFFFFF,cubic,{32},1.214e-09
Monazite-(Ce),Ce(PO4),"{""Ce"": 1.0, ""P"": 1.0, ""O"": 4.0}",235.09,#FFFFFF,monoclinic,"{9,19,23,26,34,36,40}",4.629905e-06
Monazite-(Gd),Gd(PO4),"{""Gd"": 1.0, ""P"": 1.0, ""O"": 4.0}",252.22,#FFFFFF,monoclinic,{},1e-07
Monazite-(La),La(PO4),"{""La"": 1.0, ""P"": 1.0, ""O"": 4.0}",233.88,#FFFFFF,monoclinic,"{9,19,23,26,34,36,40}",4.629905e-06
Monazite-(Nd),Nd(PO4),"{""Nd"": 1.0, ""P"": 1.0, ""O"": 4.0}",239.21,#FFFFFF,monoclinic,"{9,19,23,26,34,36,40}",4.629905e-06
Monazite-(Sm),Sm(PO4),"{""Sm"": 1.0, ""P"": 1.0, ""O"": 4.0}",245.33,#FFFFFF,monoclinic,"{23,34}",1.77652e-07
Monchetundraite,Pd2NiTe2,"{""Pd"": 2.0, ""Ni"": 1.0, ""Te"": 2.0}",526.733,#7FFF00,orthorhombic,{33},1.2547e-08
Monetite,Ca(PO3OH),"{""Ca"": 1.0, ""P"": 1.0, ""O"": 4.0, ""H"": 1.0}",136.056,#FFFFFF,triclinic,"{47,49,52}",4.1891e-08
Mongolite,Ca4Nb6Si5O24(OH)10·6H2O,"{""Ca"": 4.0, ""Nb"": 6.0, ""Si"": 5.0, ""O"": 40.0, ""H"": 22.0}",1520.309,#FFFFFF,tetragonal,"{35,47}",1.63924e-07
Monimolite,Pb2Sb5+2O7,"{""Pb"": 2.0, ""Sb"": 2.0, ""O"": 7.0}",769.913,#A9A9A9,unknown,"{23,47}",1.908944e-06
Monipite,MoNiP,"{""Mo"": 1.0, ""Ni"": 1.0, ""P"": 1.0}",185.617,#7FFF00,hexagonal,{3},2.0833e-08
Monohydrocalcite,Ca(CO3)·H2O,"{""Ca"": 1.0, ""C"": 1.0, ""O"": 4.0, ""H"": 2.0}",118.101,#FFFFFF,hexagonal,"{21,24,25,31,49,53}",5.52767e-07
Montebrasite,LiAl(PO4)(OH),"{""Li"": 1.0, ""Al"": 1.0, ""P"": 1.0, ""O"": 5.0, ""H"": 1.0}",145.899,#FFFFFF,triclinic,"{34,47}",1.6788e-08
Monteneroite,Cu2+Mn2+2(AsO4)2·8H2O,"{""Cu"": 1.0, ""Mn"": 2.0, ""As"": 2.0, ""O"": 16.0, ""H"": 16.0}",595.378,#FFFFFF,monoclinic,{47},7.508e-09
Monteneveite,Ca3Sb5+2(Fe3+2Fe2+)O12,"{""Ca"": 3.0, ""Sb"": 2.0, ""Fe"": 3.0, ""O"": 12.0}",723.277,#556B2F,cubic,{31},2.809e-08
Monteponite,CdO,"{""Cd"": 1.0, ""O"": 1.0}",128.409,#FFFFFF,cubic,"{45,47,55}",2.11614e-07
Monteregianite-(Y),KNa2YSi8O19·5H2O,"{""K"": 1.0, ""Na"": 2.0, ""Y"": 1.0, ""Si"": 8.0, ""O"": 24.0, ""H"": 10.0}",792.72,#FFFFFF,monoclinic,{35},1.3774e-08
Montesommaite,K9(Si23Al9)O64·10H2O,"{""K"": 9.0, ""Si"": 23.0, ""Al"": 9.0, ""O"": 74.0, ""H"": 20.0}",2444.761,#FFFFFF,tetragonal,"{9,10}",2.41077e-07
Montetrisaite,Cu6(SO4)(OH)10·2H2O,"{""Cu"": 6.0, ""S"": 1.0, ""O"": 16.0, ""H"": 14.0}",683.432,#FFFFFF,orthorhombic,{47},3.003e-09
Montgomeryite,Ca4MgAl4(PO4)6(OH)4·12H2O,"{""Ca"": 4.0, ""Mg"": 1.0, ""Al"": 4.0, ""P"": 6.0, ""O"": 40.0, ""H"": 28.0}",1146.573,#FFFFFF,monoclinic,{21},1.2658e-08
Monticellite,CaMg(SiO4),"{""Ca"": 1.0, ""Mg"": 1.0, ""Si"": 1.0, ""O"": 4.0}",156.464,#FFFFFF,orthorhombic,"{6,7,31,35,40,51}",1.2550797e-05
Montpelvouxite,AgPb16Sb27As18S84,"{""Ag"": 1.0, ""Pb"": 16.0, ""Sb"": 27.0, ""As"": 18.0, ""S"": 84.0}",10752.226,#708090,triclinic,{},2e-08
Montroyalite,Sr4Al8(CO3)3(OH)26·10H2O,"{""Sr"": 4.0, ""Al"": 8.0, ""C"": 3.0, ""O"": 45.0, ""H"": 46.0}",1368.692,#FFFFFF,unknown,{36},3.4364e-08
Montroydite,HgO,"{""Hg"": 1.0, ""O"": 1.0}",216.589,#FFFFFF,orthorhombic,{47},1.5015e-07
Mooihoekite,Cu9Fe9S16,"{""Cu"": 9.0, ""Fe"": 9.0, ""S"": 16.0}",1587.479,#DAA520,tetragonal,"{15,33,37}",7.982e-09
Mooreite,Mg15(SO4)2(OH)26·8H2O,"{""Mg"": 15.0, ""S"": 2.0, ""O"": 42.0, ""H"": 42.0}",1142.989,#FFFFFF,monoclinic,"{32,47}",3.488e-09
Moorhouseite,Co(SO4)·6H2O,"{""Co"": 1.0, ""S"": 1.0, ""O"": 10.0, ""H"": 12.0}",263.079,#FFFFFF,monoclinic,"{47,55}",3.761e-09
Mopungite,NaSb5+(OH)6,"{""Na"": 1.0, ""Sb"": 1.0, ""O"": 6.0, ""H"": 6.0}",246.792,#FFFFFF,tetragonal,"{47,57}",3.54232e-07
Moraesite,Be2(PO4)(OH)·4H2O,"{""Be"": 2.0, ""P"": 1.0, ""O"": 9.0, ""H"": 9.0}",202.0614,#FFFFFF,monoclinic,{22},4.049e-09
Moragite,Ca3TiSi2(Al2Si)O14,"{""Ca"": 3.0, ""Ti"": 1.0, ""Si"": 3.0, ""Al"": 2.0, ""O"": 14.0}",530.306,#FFFFFF,hexagonal,{},3e-07
Moraskoite,Na2Mg(PO4)F,"{""Na"": 2.0, ""Mg"": 1.0, ""P"": 1.0, ""O"": 4.0, ""F"": 1.0}",184.253,#FFFFFF,orthorhombic,{5},5.319e-09
Moreauite,Al3(UO2)(PO4)3(OH)2·13H2O,"{""Al"": 3.0, ""U"": 1.0, ""O"": 29.0, ""P"": 3.0, ""H"": 28.0}",904.093,#FFFFFF,monoclinic,{22},4.049e-09
Morelandite,Ca2Ba3(AsO4)3Cl,"{""Ca"": 2.0, ""Ba"": 3.0, ""As"": 3.0, ""O"": 12.0, ""Cl"": 1.0}",944.35,#FFFFFF,hexagonal,{32},2.4272e-08
Morenosite,Ni(SO4)·7H2O,"{""Ni"": 1.0, ""S"": 1.0, ""O"": 11.0, ""H"": 14.0}",280.854,#FFFFFF,orthorhombic,{47},3.003e-09
Morimotoite,Ca3(TiFe2+)(SiO4)3,"{""Ca"": 3.0, ""Ti"": 1.0, ""Fe"": 1.0, ""Si"": 3.0, ""O"": 12.0}",500.189,#556B2F,cubic,{35},4.132e-09
Morinite,NaCa2Al2(PO4)2(OH)F4·2H2O,"{""Na"": 1.0, ""Ca"": 2.0, ""Al"": 2.0, ""P"": 2.0, ""O"": 11.0, ""H"": 5.0, ""F"": 4.0}",476.079,#FFFFFF,monoclinic,"{22,34}",2.911e-09
Morrisonite,Ca11(As3+V4+2V5+10As5+6O51)2·78H2O,"{""Ca"": 11.0, ""As"": 14.0, ""V"": 24.0, ""O"": 180.0, ""H"": 156.0}",5749.442,#FFFFFF,monoclinic,{47},1.5015e-07
Moschelite,HgI,"{""Hg"": 1.0, ""I"": 1.0}",327.49,#FFFFFF,tetragonal,"{33,47,50}",1.99327e-07
Moschellandsbergite,Ag2Hg3,"{""Ag"": 2.0, ""Hg"": 3.0}",817.51,#C0C0C0,cubic,{33},1.2547e-08
Mosesite,(Hg2N)Cl,"{""Hg"": 2.0, ""N"": 1.0, ""Cl"": 1.0}",450.637,#FFFFFF,cubic,{33},1.2547e-08
Moskvinite-(Y),Na2KYSi6O15,"{""Na"": 2.0, ""K"": 1.0, ""Y"": 1.0, ""Si"": 6.0, ""O"": 15.0}",582.479,#FFFFFF,orthorhombic,{35},1.3774e-08
Mossbauerite,Fe3+6O4(OH)8(CO3)·3H2O,"{""Fe"": 6.0, ""O"": 18.0, ""H"": 14.0, ""C"": 1.0}",649.175,#556B2F,hexagonal,"{24,47}",2.85285e-07
Mottramite,PbCu(VO4)(OH),"{""Pb"": 1.0, ""Cu"": 1.0, ""V"": 1.0, ""O"": 5.0, ""H"": 1.0}",402.691,#FFFFFF,orthorhombic,"{32,47}",1.74422e-07
Motukoreaite,Mg6Al3(OH)18[Na(H2O)6](SO4)2·6H2O,"{""Mg"": 6.0, ""Al"": 3.0, ""O"": 38.0, ""H"": 42.0, ""Na"": 1.0, ""S"": 2.0}",964.184,#FFFFFF,hexagonal,"{8,10}",1.30901e-07
Mounanaite,PbFe3+2(VO4)2(OH)2,"{""Pb"": 1.0, ""Fe"": 2.0, ""V"": 2.0, ""O"": 10.0, ""H"": 2.0}",582.78,#556B2F,monoclinic,{47},1.5015e-07
Mountainite,KNa2Ca2[Si8O19(OH)]·6H2O,"{""K"": 1.0, ""Na"": 2.0, ""Ca"": 2.0, ""Si"": 8.0, ""O"": 26.0, ""H"": 13.0}",818.992,#FFFFFF,monoclinic,"{7,35}",1.23597e-07
Mourite,(UO2)(Mo6+)5O16·5H2O,"{""U"": 1.0, ""O"": 23.0, ""Mo"": 5.0, ""H"": 10.0}",1095.837,#FFFFFF,monoclinic,{47},1.5015e-07
Moxuanxueite,NaCa6Zr(Si2O7)2OF3,"{""Na"": 1.0, ""Ca"": 6.0, ""Zr"": 1.0, ""Si"": 4.0, ""O"": 15.0, ""F"": 3.0}",764.001,#FFFFFF,triclinic,{31},1.404e-09
Moydite-(Y),YB(OH)4(CO3),"{""Y"": 1.0, ""B"": 1.0, ""O"": 7.0, ""H"": 4.0, ""C"": 1.0}",227.752,#FFFFFF,orthorhombic,{22},4.0486e-08
Mozartite,CaMn3+(SiO4)(OH),"{""Ca"": 1.0, ""Mn"": 1.0, ""Si"": 1.0, ""O"": 5.0, ""H"": 1.0}",204.104,#FFFFFF,orthorhombic,{32},1.214e-09
Mozgovaite,PbBi4S7,"{""Pb"": 1.0, ""Bi"": 4.0, ""S"": 7.0}",1267.54,#708090,orthorhombic,"{11,12,33}",7.357e-09
Mpororoite,Al2O(WO4)2·6H2O,"{""Al"": 2.0, ""O"": 15.0, ""W"": 2.0, ""H"": 12.0}",673.725,#FFFFFF,triclinic,{47},1.5015e-07
Mrazekite,Bi2Cu3(PO4)2O2(OH)2·2H2O,"{""Bi"": 2.0, ""Cu"": 3.0, ""P"": 2.0, ""O"": 14.0, ""H"": 6.0}",900.58,#FFFFFF,monoclinic,{47},1.5015e-08
Mroseite,CaTe4+O2(CO3),"{""Ca"": 1.0, ""Te"": 1.0, ""O"": 5.0, ""C"": 1.0}",259.684,#FFFFFF,orthorhombic,"{23,33}",1.771341e-06
Muckeite,CuNiBiS3,"{""Cu"": 1.0, ""Ni"": 1.0, ""Bi"": 1.0, ""S"": 3.0}",427.399,#A9A9A9,orthorhombic,{33},2.51e-10
Mukhinite,Ca2(Al2V3+)[Si2O7][SiO4]O(OH),"{""Ca"": 2.0, ""Al"": 2.0, ""V"": 1.0, ""Si"": 3.0, ""O"": 13.0, ""H"": 1.0}",478.312,#FFFFFF,monoclinic,{32},2.4272e-08
Mullerite,Pb2Fe3+(Te6+O6)Cl,"{""Pb"": 2.0, ""Fe"": 1.0, ""Te"": 1.0, ""O"": 6.0, ""Cl"": 1.0}",729.289,#556B2F,hexagonal,{47},1.5015e-07
Munakataite,Pb2Cu2(Se4+O3)(SO4)(OH)4,"{""Pb"": 2.0, ""Cu"": 2.0, ""Se"": 1.0, ""O"": 11.0, ""S"": 1.0, ""H"": 4.0}",832.544,#FFFFFF,monoclinic,{47},3.003e-09
Mundrabillaite,(NH4)2Ca(PO3OH)2·H2O,"{""N"": 2.0, ""H"": 12.0, ""Ca"": 1.0, ""P"": 2.0, ""O"": 9.0}",286.127,#FFFFFF,monoclinic,{52},1.3889e-08
Muonionalustaite,Ni3(OH)4Cl2·4H2O,"{""Ni"": 3.0, ""O"": 8.0, ""H"": 12.0, ""Cl"": 2.0}",387.067,#FFFFFF,monoclinic,{47},1.5015e-07
Murakamiite,Ca2LiSi3O8(OH),"{""Ca"": 2.0, ""Li"": 1.0, ""Si"": 3.0, ""O"": 9.0, ""H"": 1.0}",316.35,#FFFFFF,triclinic,{35},1.3774e-08
Murashkoite,FeP,"{""Fe"": 1.0, ""P"": 1.0}",86.819,#8B4513,orthorhombic,"{50,51,54}",1.5749e-08
Murchisite,Cr5S6,"{""Cr"": 5.0, ""S"": 6.0}",452.34,#A9A9A9,hexagonal,{6},9.76e-10
Murdochite,Cu12Pb2O15Cl2,"{""Cu"": 12.0, ""Pb"": 2.0, ""O"": 15.0, ""Cl"": 2.0}",1487.837,#FFFFFF,cubic,{47},1.5015e-07
Murmanite,Na2Ti2Na2Ti2(Si2O7)2O4(H2O)4,"{""Na"": 4.0, ""Ti"": 4.0, ""Si"": 4.0, ""O"": 22.0, ""H"": 8.0}",755.81,#FFFFFF,triclinic,"{35,47}",4.9177e-08
Murphyite,Pb(Te6+O4),"{""Pb"": 1.0, ""Te"": 1.0, ""O"": 4.0}",398.796,#FFFFFF,unknown,{47},1.5015e-07
Muscovite,KAl2(Si3Al)O10(OH)2,"{""K"": 1.0, ""Al"": 3.0, ""Si"": 3.0, ""O"": 12.0, ""H"": 2.0}",398.303,#FFFFFF,hexagonal,"{16,19,20,23,26,34,40,43,50}",6.6746951e-05
Mushistonite,Cu2+Sn4+(OH)6,"{""Cu"": 1.0, ""Sn"": 1.0, ""O"": 6.0, ""H"": 6.0}",284.298,#FFFFFF,tetragonal,"{34,47}",1.67881e-07
Muskoxite,Mg7Fe3+4(OH)26·H2O (?),"{""Mg"": 7.0, ""Fe"": 4.0, ""O"": 27.0, ""H"": 28.0}",853.712,#556B2F,unknown,"{13,37}",2.90326e-07
Muthmannite,AuAgTe2,"{""Au"": 1.0, ""Ag"": 1.0, ""Te"": 2.0}",560.04,#FFD700,monoclinic,{33},1.2547e-08
Mutinaite,Na3Ca4Al11Si85O192·60H2O,"{""Na"": 3.0, ""Ca"": 4.0, ""Al"": 11.0, ""Si"": 85.0, ""O"": 252.0, ""H"": 120.0}",7066.017,#FFFFFF,orthorhombic,{10},1.21495e-07
Naalasite,NaAl(AsO3OH)2·H2O,"{""Na"": 1.0, ""Al"": 1.0, ""As"": 2.0, ""O"": 9.0, ""H"": 4.0}",347.839,#FFFFFF,hexagonal,{},1e-06
Nabalamprophyllite,(BaNa)Ti2Na3Ti(Si2O7)2O2(OH)2,"{""Ba"": 1.0, ""Na"": 4.0, ""Ti"": 3.0, ""Si"": 4.0, ""O"": 18.0, ""H"": 2.0}",775.229,#FFFFFF,orthorhombic,{35},4.132e-09
Nabaphite,NaBa(PO4)·9H2O,"{""Na"": 1.0, ""Ba"": 1.0, ""P"": 1.0, ""O"": 13.0, ""H"": 18.0}",417.425,#FFFFFF,cubic,{22},4.049e-09
Nabateaite,Fe2P2O7,"{""Fe"": 2.0, ""P"": 2.0, ""O"": 7.0}",285.631,#8B4513,triclinic,{51},7.812e-09
Nabesite,Na2BeSi4O10·4H2O,"{""Na"": 2.0, ""Be"": 1.0, ""Si"": 4.0, ""O"": 14.0, ""H"": 8.0}",399.3822,#FFFFFF,orthorhombic,{35},1.3774e-08
Nabiasite,BaMn9(VO4)6(OH)2,"{""Ba"": 1.0, ""Mn"": 9.0, ""V"": 6.0, ""O"": 26.0, ""H"": 2.0}",1355.414,#FFFFFF,cubic,"{22,32}",3.238e-09
Nabimusaite,KCa12(SiO4)4(SO4)2O2F,"{""K"": 1.0, ""Ca"": 12.0, ""Si"": 4.0, ""O"": 26.0, ""S"": 2.0, ""F"": 1.0}",1131.466,#FFFFFF,hexagonal,{51},1.563e-09
Nabokoite,Cu7Te4+O4(SO4)5·KCl,"{""Cu"": 7.0, ""Te"": 1.0, ""O"": 24.0, ""S"": 5.0, ""K"": 1.0, ""Cl"": 1.0}",1191.246,#FFFFFF,tetragonal,{45},4.72e-10
Nacaphite,Na2Ca(PO4)F,"{""Na"": 2.0, ""Ca"": 1.0, ""P"": 1.0, ""O"": 4.0, ""F"": 1.0}",200.026,#FFFFFF,triclinic,{35},6.89e-10
Nacareniobsite-(Ce),Ca2(CaCe)Na3Nb(Si2O7)2(OF)F2,"{""Ca"": 3.0, ""Ce"": 1.0, ""Na"": 3.0, ""Nb"": 1.0, ""Si"": 4.0, ""O"": 15.0, ""F"": 3.0}",831.549,#FFFFFF,monoclinic,{35},6.89e-10
Nacareniobsite-(Nd),Ca2(CaNd)Na3Nb(Si2O7)2(OF)F2,"{""Ca"": 3.0, ""Nd"": 1.0, ""Na"": 3.0, ""Nb"": 1.0, ""Si"": 4.0, ""O"": 15.0, ""F"": 3.0}",835.669,#FFFFFF,monoclinic,{},5e-08
Nacareniobsite-(Y),Na3Ca3YNb(Si2O7)2OF3,"{""Na"": 3.0, ""Ca"": 3.0, ""Y"": 1.0, ""Nb"": 1.0, ""Si"": 4.0, ""O"": 15.0, ""F"": 3.0}",780.335,#FFFFFF,monoclinic,{},5e-08
Nacrite,Al2Si2O5(OH)4,"{""Al"": 2.0, ""Si"": 2.0, ""O"": 9.0, ""H"": 4.0}",258.157,#FFFFFF,monoclinic,"{22,24,28,40,43}",3.390425e-05
Nadorite,PbSb3+O2Cl,"{""Pb"": 1.0, ""Sb"": 1.0, ""O"": 2.0, ""Cl"": 1.0}",396.408,#FFFFFF,orthorhombic,"{47,57}",3.54232e-07
Nafeasite,Na3Fe3+3(AsO3OH)6·3H2O,"{""Na"": 3.0, ""Fe"": 3.0, ""As"": 6.0, ""O"": 27.0, ""H"": 12.0}",1130.106,#556B2F,monoclinic,{47},1.5015e-07
Nafertisite,Na3Fe2+10Ti2(Si6O17)2O2(OH)6F(H2O)2,"{""Na"": 3.0, ""Fe"": 10.0, ""Ti"": 2.0, ""Si"": 12.0, ""O"": 44.0, ""H"": 10.0, ""F"": 1.0}",1793.208,#556B2F,monoclinic,"{22,35}",2.713e-09
Nagelschmidtite,Ca7(SiO4)2(PO4)2,"{""Ca"": 7.0, ""Si"": 2.0, ""O"": 16.0, ""P"": 2.0}",654.648,#FFFFFF,hexagonal,"{26,51}",1.1812e-08
Nahcolite,NaH(CO3),"{""Na"": 1.0, ""H"": 1.0, ""C"": 1.0, ""O"": 3.0}",84.006,#FFFFFF,monoclinic,"{14,35,36,56}",2.82003e-07
Nahpoite,Na2(PO3OH),"{""Na"": 2.0, ""P"": 1.0, ""O"": 4.0, ""H"": 1.0}",141.958,#FFFFFF,monoclinic,"{35,47}",1.6392e-08
Nakauriite,Cu8(SO4)4(CO3)(OH)6·48H2O,"{""Cu"": 8.0, ""S"": 4.0, ""O"": 73.0, ""C"": 1.0, ""H"": 102.0}",1919.362,#FFFFFF,orthorhombic,"{13,47}",5.988e-09
Nakkaalaaqite,K2[Na3Ca]LiCa2Ti2Be4Si12O38,"{""K"": 2.0, ""Na"": 3.0, ""Ca"": 3.0, ""Li"": 1.0, ""Ti"": 2.0, ""Be"": 4.0, ""Si"": 12.0, ""O"": 38.0}",1351.1048,#FFFFFF,orthorhombic,{35},4.132e-09
Naldrettite,Pd2Sb,"{""Pd"": 2.0, ""Sb"": 1.0}",334.6,#A9A9A9,orthorhombic,"{33,37}",8.6621e-08
Nalipoite,NaLi2(PO4),"{""Na"": 1.0, ""Li"": 2.0, ""P"": 1.0, ""O"": 4.0}",131.84,#FFFFFF,orthorhombic,"{9,35}",9.251e-09
Nalivkinite,Li2NaFe2+7Ti2(Si4O12)2O2(OH)4F(H2O)2,"{""Li"": 2.0, ""Na"": 1.0, ""Fe"": 7.0, ""Ti"": 2.0, ""Si"": 8.0, ""O"": 32.0, ""H"": 8.0, ""F"": 1.0}",1287.229,#556B2F,triclinic,{35},6.89e-10
Namansilite,NaMn3+Si2O6,"{""Na"": 1.0, ""Mn"": 1.0, ""Si"": 2.0, ""O"": 6.0}",230.092,#FFFFFF,monoclinic,"{32,47}",8.721e-09
Nambulite,LiMn2+4Si5O14(OH),"{""Li"": 1.0, ""Mn"": 4.0, ""Si"": 5.0, ""O"": 15.0, ""H"": 1.0}",608.11,#FFFFFF,triclinic,"{32,34}",2.1e-09
Namibite,Cu(BiO)2(VO4)(OH),"{""Cu"": 1.0, ""Bi"": 2.0, ""O"": 7.0, ""V"": 1.0, ""H"": 1.0}",645.449,#FFFFFF,triclinic,{47},1.5015e-07
Namuwite,Zn4(SO4)(OH)6·4H2O,"{""Zn"": 4.0, ""S"": 1.0, ""O"": 14.0, ""H"": 14.0}",531.678,#FFFFFF,hexagonal,"{47,55,56}",5.159e-09
Nancyrossite,FeGeO6H5,"{""Fe"": 1.0, ""Ge"": 1.0, ""O"": 6.0, ""H"": 5.0}",229.509,#556B2F,tetragonal,{},1e-06
Nanlingite,Na(Ca5Li)Mg12(AsO3)2[Fe2+(AsO3)6]F14,"{""Na"": 1.0, ""Ca"": 5.0, ""Li"": 1.0, ""Mg"": 12.0, ""As"": 8.0, ""O"": 24.0, ""Fe"": 1.0, ""F"": 14.0}",1827.149,#556B2F,hexagonal,{47},7.508e-09
Nannoniite,Al2(OH)5F,"{""Al"": 2.0, ""O"": 5.0, ""H"": 5.0, ""F"": 1.0}",157.997,#FFFFFF,monoclinic,{},5e-08