name,formula,elements,density,color,crystal,pm_ids,gacha_weight
Kangjinlaite,Ti11Si10,"{""Ti"": 11.0, ""Si"": 10.0}",807.387,#FFFFFF,tetragonal,{38},2.7778e-08
Kannanite,Ca4Al4(MgAl)(VO4)(SiO4)2(Si3O10)(OH)6,"{""Ca"": 4.0, ""Al"": 5.0, ""Mg"": 1.0, ""V"": 1.0, ""O"": 28.0, ""Si"": 5.0, ""H"": 6.0}",964.914,#FFFFFF,orthorhombic,{32},2.4272e-08
Kanoite,MnMgSi2O6,"{""Mn"": 1.0, ""Mg"": 1.0, ""Si"": 2.0, ""O"": 6.0}",231.407,#FFFFFF,monoclinic,"{32,40}",4.71433e-07
Kanonaite,Mn3+AlOSiO4,"{""Mn"": 1.0, ""Al"": 1.0, ""O"": 5.0, ""Si"": 1.0}",190.0,#FFFFFF,orthorhombic,{32},1.214e-09
Kanonerovite,Na3MnP3O10·12H2O,"{""Na"": 3.0, ""Mn"": 1.0, ""P"": 3.0, ""O"": 22.0, ""H"": 24.0}",593.0,#FFFFFF,monoclinic,{47},7.508e-09
Kantorite,K2NaMg(SO4)2F,"{""K"": 2.0, ""Na"": 1.0, ""Mg"": 1.0, ""S"": 2.0, ""O"": 8.0, ""F"": 1.0}",336.601,#FFFFFF,orthorhombic,{},2e-08
Kaolinite,Al2Si2O5(OH)4,"{""Al"": 2.0, ""Si"": 2.0, ""O"": 9.0, ""H"": 4.0}",258.157,#FFFFFF,monoclinic,"{16,22,24,47,48,53}",1.950448e-06
Kapellasite,Cu3Zn(OH)6Cl2,"{""Cu"": 3.0, ""Zn"": 1.0, ""O"": 6.0, ""H"": 6.0, ""Cl"": 2.0}",428.96,#FFFFFF,hexagonal,{47},1.5015e-07
Kapitsaite-(Y),Ba4Y2Si8B4O28F,"{""Ba"": 4.0, ""Y"": 2.0, ""Si"": 8.0, ""B"": 4.0, ""O"": 28.0, ""F"": 1.0}",1462.022,#FFFFFF,triclinic,{35},6.89e-10
Kapundaite,CaNaFe3+4(PO4)4(OH)3·5H2O,"{""Ca"": 1.0, ""Na"": 1.0, ""Fe"": 4.0, ""P"": 4.0, ""O"": 24.0, ""H"": 13.0}",807.424,#556B2F,triclinic,"{21,47}",2.7673e-08
Kapustinite,Na6ZrSi6O16(OH)2,"{""Na"": 6.0, ""Zr"": 1.0, ""Si"": 6.0, ""O"": 18.0, ""H"": 2.0}",687.672,#FFFFFF,monoclinic,{35},1.3774e-08
Karasugite,SrCaAlF7,"{""Sr"": 1.0, ""Ca"": 1.0, ""Al"": 1.0, ""F"": 7.0}",287.666,#FFFFFF,monoclinic,"{23,47}",9.5447e-08
Karchevskyite,Mg18Al9(OH)54Sr2(CO3)9(H2O)6(H3O)5,"{""Mg"": 18.0, ""Al"": 9.0, ""O"": 92.0, ""H"": 81.0, ""Sr"": 2.0, ""C"": 9.0}",2517.223,#FFFFFF,hexagonal,"{22,36}",7.485e-08
Karelianite,V2O3,"{""V"": 2.0, ""O"": 3.0}",149.881,#FFFFFF,hexagonal,"{33,40,50}",9.453566e-06
Karenwebberite,NaFe2+(PO4),"{""Na"": 1.0, ""Fe"": 1.0, ""P"": 1.0, ""O"": 4.0}",173.805,#556B2F,orthorhombic,{34},1.773e-09
Karibibite,Fe3+3(As3+O2)4(As3+2O5)(OH),"{""Fe"": 3.0, ""As"": 6.0, ""O"": 14.0, ""H"": 1.0}",842.061,#556B2F,orthorhombic,{47},1.5015e-07
Karlditmarite,Cu9O4(PO4)2(SO4)2,"{""Cu"": 9.0, ""O"": 20.0, ""P"": 2.0, ""S"": 2.0}",1017.962,#FFFFFF,triclinic,{45},4.72e-10
Karlleuite,Ca2MnO4,"{""Ca"": 2.0, ""Mn"": 1.0, ""O"": 4.0}",199.09,#FFB6C1,tetragonal,{},5e-08
Karlseifertite,Pb(Ga2Ge)(AsO4)2(OH)6,"{""Pb"": 1.0, ""Ga"": 2.0, ""Ge"": 1.0, ""As"": 2.0, ""O"": 14.0, ""H"": 6.0}",799.154,#FFFFFF,hexagonal,{},1e-06
Karnasurtite-(Ce),CeTiAlSi2O7(OH)4·3H2O,"{""Ce"": 1.0, ""Ti"": 1.0, ""Al"": 1.0, ""Si"": 2.0, ""O"": 14.0, ""H"": 10.0}",505.205,#FFFFFF,unknown,{35},4.132e-09
Karpenkoite,Co3(V2O7)(OH)2·2H2O,"{""Co"": 3.0, ""V"": 2.0, ""O"": 11.0, ""H"": 6.0}",460.72,#FFFFFF,hexagonal,{47},1.5015e-07
Karpovite,Tl2VO(SO4)2(H2O),"{""Tl"": 2.0, ""V"": 1.0, ""O"": 10.0, ""S"": 2.0, ""H"": 2.0}",685.828,#FFFFFF,monoclinic,{45},4.72e-10
Kasatkinite,Ba2Ca8B5Si8O32(OH)3·6H2O,"{""Ba"": 2.0, ""Ca"": 8.0, ""B"": 5.0, ""Si"": 8.0, ""O"": 41.0, ""H"": 15.0}",1545.093,#FFFFFF,monoclinic,"{23,40}",1.1163183e-05
Kashinite,Ir2S3,"{""Ir"": 2.0, ""S"": 3.0}",480.62,#A9A9A9,orthorhombic,"{7,26,33,38}",4.529e-09
Kasolite,Pb(UO2)(SiO4)·H2O,"{""Pb"": 1.0, ""U"": 1.0, ""O"": 7.0, ""Si"": 1.0, ""H"": 2.0}",587.324,#FFFFFF,monoclinic,"{27,47}",1.261261e-06
Kassite,CaTi2O4(OH)2,"{""Ca"": 1.0, ""Ti"": 2.0, ""O"": 6.0, ""H"": 2.0}",233.822,#FFFFFF,monoclinic,{35},4.132e-09
Kastningite,Mn2+Al2(PO4)2(OH)2·8H2O,"{""Mn"": 1.0, ""Al"": 2.0, ""P"": 2.0, ""O"": 18.0, ""H"": 18.0}",476.976,#FFFFFF,triclinic,"{34,47}",8.394e-09
Katanite,Ba3NbFe3Si2O14,"{""Ba"": 3.0, ""Nb"": 1.0, ""Fe"": 3.0, ""Si"": 2.0, ""O"": 14.0}",952.587,#556B2F,hexagonal,{},1e-06
Katayamalite,KLi3Ca7Ti2(SiO3)12(OH)2,"{""K"": 1.0, ""Li"": 3.0, ""Ca"": 7.0, ""Ti"": 2.0, ""Si"": 12.0, ""O"": 38.0, ""H"": 2.0}",1383.196,#FFFFFF,triclinic,{21},3.7975e-08
Katerinopoulosite,(NH4)2Zn(SO4)2·6H2O,"{""N"": 2.0, ""H"": 20.0, ""Zn"": 1.0, ""S"": 2.0, ""O"": 14.0}",401.66,#FFFFFF,monoclinic,"{47,55}",3.761e-09
Katiarsite,KTiO(AsO4),"{""K"": 1.0, ""Ti"": 1.0, ""O"": 5.0, ""As"": 1.0}",241.882,#FFFFFF,orthorhombic,{45},7.075e-09
Katoite,Ca3Al2(OH)12,"{""Ca"": 3.0, ""Al"": 2.0, ""O"": 12.0, ""H"": 12.0}",378.282,#FFFFFF,cubic,"{16,22,51}",3.10821e-07
Katophorite,Na(NaCa)(Mg4Al)(Si7Al)O22(OH)2,"{""Na"": 2.0, ""Ca"": 1.0, ""Mg"": 4.0, ""Al"": 2.0, ""Si"": 7.0, ""O"": 24.0, ""H"": 2.0}",819.829,#FFFFFF,monoclinic,"{35,39}",2.03621e-07
Katoptrite,Mn2+13Al4Sb5+2O20(SiO4)2,"{""Mn"": 13.0, ""Al"": 4.0, ""Sb"": 2.0, ""O"": 28.0, ""Si"": 2.0}",1569.784,#FFFFFF,monoclinic,{32},1.214e-09
Katsarosite,Zn(C2O4)·2H2O,"{""Zn"": 1.0, ""C"": 2.0, ""O"": 6.0, ""H"": 4.0}",189.428,#FFFFFF,monoclinic,"{53,55,56}",1.93279e-07
Kawazulite,Bi2Te2Se,"{""Bi"": 2.0, ""Te"": 2.0, ""Se"": 1.0}",752.131,#D2B48C,hexagonal,{33},1.2547e-08
Kayrobertsonite,MnAl2(PO4)2(OH)2·6H2O,"{""Mn"": 1.0, ""Al"": 2.0, ""P"": 2.0, ""O"": 16.0, ""H"": 14.0}",440.946,#FFFFFF,triclinic,"{34,47}",8.394e-09
Kayupovaite,Na2Mn10[(Si14Al2)O38(OH)8]·7H2O,"{""Na"": 2.0, ""Mn"": 10.0, ""Si"": 14.0, ""Al"": 2.0, ""O"": 53.0, ""H"": 22.0}",1912.637,#FFFFFF,monoclinic,{},5e-08
Kazakhstanite,Fe3+5V4+3V5+12O39(OH)9·9H2O,"{""Fe"": 5.0, ""V"": 15.0, ""O"": 57.0, ""H"": 27.0}",1982.514,#556B2F,monoclinic,{47},1.5015e-07
Kazakovite,Na6Mn2+TiSi6O18,"{""Na"": 6.0, ""Mn"": 1.0, ""Ti"": 1.0, ""Si"": 6.0, ""O"": 18.0}",697.237,#FFFFFF,hexagonal,{35},6.89e-10
Kaznakhtite,Ni6Co3+2(OH)16(CO3)·4H2O,"{""Ni"": 6.0, ""Co"": 2.0, ""O"": 23.0, ""H"": 24.0, ""C"": 1.0}",874.204,#FFFFFF,hexagonal,{47},1.5015e-07
Kegelite,Pb4Al2Si4O10(SO4)(CO3)2(OH)4,"{""Pb"": 4.0, ""Al"": 2.0, ""Si"": 4.0, ""O"": 24.0, ""S"": 1.0, ""C"": 2.0, ""H"": 4.0}",1439.194,#FFFFFF,monoclinic,{47},3.003e-09
Kegginite,Pb3Ca3[AsV12O40(VO)]·20H2O,"{""Pb"": 3.0, ""Ca"": 3.0, ""As"": 1.0, ""V"": 13.0, ""O"": 61.0, ""H"": 40.0}",2495.261,#FFFFFF,hexagonal,"{47,50,55}",2.24659e-07
Keilite,FeS,"{""Fe"": 1.0, ""S"": 1.0}",87.905,#DAA520,cubic,"{4,5}",6.383e-09
Keithconnite,Pd20Te7,"{""Pd"": 20.0, ""Te"": 7.0}",3021.6,#FFFFFF,hexagonal,"{26,33,37}",1.26621e-07
Keiviite-(Y),Y2Si2O7,"{""Y"": 2.0, ""Si"": 2.0, ""O"": 7.0}",345.975,#FFFFFF,monoclinic,{34},1.773e-08
Keiviite-(Yb),Yb2Si2O7,"{""Yb"": 2.0, ""Si"": 2.0, ""O"": 7.0}",514.263,#FFFFFF,monoclinic,{34},1.773e-08
Keldyshite,Na2ZrSi2O7,"{""Na"": 2.0, ""Zr"": 1.0, ""Si"": 2.0, ""O"": 7.0}",305.367,#FFFFFF,triclinic,{35},1.3774e-08
Kelyanite,Hg12SbO6BrCl2,"{""Hg"": 12.0, ""Sb"": 1.0, ""O"": 6.0, ""Br"": 1.0, ""Cl"": 2.0}",2775.638,#FFFFFF,hexagonal,{47},1.5015e-07
Kemmlitzite,SrAl3(AsO4)(SO4)(OH)6,"{""Sr"": 1.0, ""Al"": 3.0, ""As"": 1.0, ""O"": 14.0, ""S"": 1.0, ""H"": 6.0}",505.582,#FFFFFF,hexagonal,{47},3.003e-09
Kempite,Mn2+2Cl(OH)3,"{""Mn"": 2.0, ""Cl"": 1.0, ""O"": 3.0, ""H"": 3.0}",196.347,#FFFFFF,unknown,"{32,47}",8.721e-09
Kenhsuite,Hg3S2Cl2,"{""Hg"": 3.0, ""S"": 2.0, ""Cl"": 2.0}",736.79,#A9A9A9,orthorhombic,"{33,47}",3.254e-09
Kenngottite,Mn2+3Fe3+4(PO4)4(OH)6(H2O)2,"{""Mn"": 3.0, ""Fe"": 4.0, ""P"": 4.0, ""O"": 24.0, ""H"": 10.0}",906.146,#556B2F,monoclinic,"{22,31,32}",4.642e-09
Kennygayite,[Pb4O2(OH)2](SO4),"{""Pb"": 4.0, ""O"": 8.0, ""H"": 2.0, ""S"": 1.0}",990.868,#FFFFFF,triclinic,{47},3.003e-09
Kenotobermorite,Ca4Si6O15(OH)2(H2O)2·3H2O,"{""Ca"": 4.0, ""Si"": 6.0, ""O"": 22.0, ""H"": 12.0}",692.896,#FFFFFF,monoclinic,"{13,31}",2.30547e-07
Kentrolite,Pb2Mn3+2O2(Si2O7),"{""Pb"": 2.0, ""Mn"": 2.0, ""O"": 9.0, ""Si"": 2.0}",724.437,#FFFFFF,orthorhombic,{32},1.214e-09
Kenyaite,Na2Si22O41(OH)8·6H2O,"{""Na"": 2.0, ""Si"": 22.0, ""O"": 55.0, ""H"": 20.0}",1563.955,#FFFFFF,tetragonal,"{16,23}",4.69819e-06
Kerimasite,Ca3Zr2(SiFe3+2)O12,"{""Ca"": 3.0, ""Zr"": 2.0, ""Si"": 1.0, ""Fe"": 2.0, ""O"": 12.0}",634.445,#556B2F,cubic,{36},3.4364e-08
Kermesite,Sb2OS2,"{""Sb"": 2.0, ""O"": 1.0, ""S"": 2.0}",323.639,#FFFF00,triclinic,{47},3.003e-09
Kernite,Na2B4O6(OH)2·3H2O,"{""Na"": 2.0, ""B"": 4.0, ""O"": 11.0, ""H"": 8.0}",273.273,#FFFFFF,monoclinic,"{23,25}",1.806413e-06
Kernowite,Cu2Fe3+(AsO4)(OH)4·4H2O,"{""Cu"": 2.0, ""Fe"": 1.0, ""As"": 1.0, ""O"": 12.0, ""H"": 12.0}",461.943,#556B2F,monoclinic,{47},1.5015e-07
Kesebolite-(Ce),CeCa2Mn(AsO4)(SiO3)3,"{""Ce"": 1.0, ""Ca"": 2.0, ""Mn"": 1.0, ""As"": 1.0, ""O"": 13.0, ""Si"": 3.0}",642.378,#FFFFFF,monoclinic,"{32,47}",8.721e-09
Kesterite,Cu2ZnSnS4,"{""Cu"": 2.0, ""Zn"": 1.0, ""Sn"": 1.0, ""S"": 4.0}",439.422,#A9A9A9,tetragonal,{12},1.55e-09
Kettnerite,CaBiO(CO3)F,"{""Ca"": 1.0, ""Bi"": 1.0, ""O"": 4.0, ""C"": 1.0, ""F"": 1.0}",344.063,#FFFFFF,orthorhombic,"{23,33}",8.8567e-08
Keutschite,Cu2AgAsS4,"{""Cu"": 2.0, ""Ag"": 1.0, ""As"": 1.0, ""S"": 4.0}",438.124,#FFD700,tetragonal,{12},1.55e-09
Khademite,Al(SO4)F·5H2O,"{""Al"": 1.0, ""S"": 1.0, ""O"": 9.0, ""F"": 1.0, ""H"": 10.0}",232.111,#FFFFFF,orthorhombic,"{45,47,50,54,55}",5.82e-09
Khaidarkanite,Cu4Al3(OH)14F3·2H2O,"{""Cu"": 4.0, ""Al"": 3.0, ""O"": 16.0, ""H"": 18.0, ""F"": 3.0}",666.252,#FFFFFF,monoclinic,{47},7.508e-09
Khamrabaevite,TiC,"{""Ti"": 1.0, ""C"": 1.0}",59.878,#FFFFFF,cubic,"{1,3,8,26,35}",2.15048e-06
Khatyrkite,CuAl2,"{""Cu"": 1.0, ""Al"": 2.0}",117.51,#00BFFF,tetragonal,{6},4.878e-08
Khesinite,Ca4(Mg2Fe3+10)O4(Fe3+10Si2)O36,"{""Ca"": 4.0, ""Mg"": 2.0, ""Fe"": 20.0, ""O"": 40.0, ""Si"": 2.0}",2021.952,#556B2F,triclinic,"{47,51,56}",3.87667e-07
Khibinskite,K2ZrSi2O7,"{""K"": 2.0, ""Zr"": 1.0, ""Si"": 2.0, ""O"": 7.0}",337.583,#FFFFFF,monoclinic,{35},1.3774e-08
Khinite,Cu2+3PbTe6+O6(OH)2,"{""Cu"": 3.0, ""Pb"": 1.0, ""Te"": 1.0, ""O"": 8.0, ""H"": 2.0}",655.446,#FFFFFF,orthorhombic,{47},1.5015e-07
Khmaralite,Mg4(Mg3Al9)O4[Si5Be2Al5O36],"{""Mg"": 7.0, ""Al"": 14.0, ""O"": 40.0, ""Si"": 5.0, ""Be"": 2.0}",1346.2924,#FFFFFF,monoclinic,{34},1.773e-08
Khrenovite,Na3Fe3+2(AsO4)3,"{""Na"": 3.0, ""Fe"": 2.0, ""As"": 3.0, ""O"": 12.0}",597.414,#556B2F,monoclinic,{45},2.3585e-08
Khristovite-(Ce),CaCe(MgAlMn2+)[Si2O7][SiO4]F(OH),"{""Ca"": 1.0, ""Ce"": 1.0, ""Mg"": 1.0, ""Al"": 1.0, ""Mn"": 1.0, ""Si"": 3.0, ""O"": 12.0, ""F"": 1.0, ""H"": 1.0}",582.672,#FFFFFF,monoclinic,{31},1.404e-09
Khurayyimite,Ca7Zn4(Si2O7)2(OH)10·4H2O,"{""Ca"": 7.0, ""Zn"": 4.0, ""Si"": 4.0, ""O"": 28.0, ""H"": 18.0}",1120.522,#FFFFFF,monoclinic,{51},7.8125e-08
Khvorovite,Pb4Ca2[Si8B2(SiB)O28]F,"{""Pb"": 4.0, ""Ca"": 2.0, ""Si"": 9.0, ""B"": 3.0, ""O"": 28.0, ""F"": 1.0}",1661.121,#FFFFFF,triclinic,{35},6.89e-10
Kiddcreekite,Cu6WSnS8,"{""Cu"": 6.0, ""W"": 1.0, ""Sn"": 1.0, ""S"": 8.0}",940.306,#A9A9A9,cubic,{33},2.51e-10
Kieftite,CoSb3,"{""Co"": 1.0, ""Sb"": 3.0}",424.213,#4169E1,cubic,{33},1.2547e-08
Kieserite,Mg(SO4)·H2O,"{""Mg"": 1.0, ""S"": 1.0, ""O"": 5.0, ""H"": 2.0}",138.376,#FFFFFF,monoclinic,"{25,45,50,54}",3.011e-09
Kihlmanite-(Ce),Ce2TiO2(SiO4)(HCO3)2(H2O),"{""Ce"": 2.0, ""Ti"": 1.0, ""O"": 13.0, ""Si"": 1.0, ""H"": 4.0, ""C"": 2.0}",592.233,#FFFFFF,triclinic,"{35,47}",4.9177e-08
Kilchoanite,Ca6(SiO4)(Si3O10),"{""Ca"": 6.0, ""Si"": 4.0, ""O"": 14.0}",576.794,#FFFFFF,orthorhombic,"{31,51}",1.38079e-07
Kimuraite-(Y),CaY2(CO3)4·6H2O,"{""Ca"": 1.0, ""Y"": 2.0, ""C"": 4.0, ""O"": 18.0, ""H"": 12.0}",566.012,#FFFFFF,orthorhombic,{47},1.5015e-07
Kimzeyite,Ca3Zr2(SiAl2)O12,"{""Ca"": 3.0, ""Zr"": 2.0, ""Si"": 1.0, ""Al"": 2.0, ""O"": 12.0}",576.719,#FFFFFF,cubic,{36},3.4364e-08
Kingite,Al3(PO4)2F2(OH)·7H2O,"{""Al"": 3.0, ""P"": 2.0, ""O"": 16.0, ""F"": 2.0, ""H"": 15.0}",451.994,#FFFFFF,triclinic,{47},7.508e-09
Kingsgateite,ZrMo6+2O7(OH)2·2H2O,"{""Zr"": 1.0, ""Mo"": 2.0, ""O"": 11.0, ""H"": 6.0}",465.161,#FFFFFF,tetragonal,"{23,47}",1.908944e-06
Kingsmountite,Ca3MnFe2+Al4(PO4)6(OH)4·12H2O,"{""Ca"": 3.0, ""Mn"": 1.0, ""Fe"": 1.0, ""Al"": 4.0, ""P"": 6.0, ""O"": 40.0, ""H"": 28.0}",1192.973,#556B2F,monoclinic,{47},7.508e-09
Kingstonite,Rh3S4,"{""Rh"": 3.0, ""S"": 4.0}",436.97,#A9A9A9,monoclinic,"{12,33,37}",3.283e-09
Kinoite,Ca2Cu2Si3O10·2H2O,"{""Ca"": 2.0, ""Cu"": 2.0, ""Si"": 3.0, ""O"": 12.0, ""H"": 4.0}",487.523,#FFFFFF,monoclinic,{31},2.809e-08
Kinoshitalite,BaMg3(Si2Al2O10)(OH)2,"{""Ba"": 1.0, ""Mg"": 3.0, ""Si"": 2.0, ""Al"": 2.0, ""O"": 12.0, ""H"": 2.0}",514.383,#FFFFFF,monoclinic,{32},2.4272e-08
Kintoreite,PbFe3+3(PO4)(PO3OH)(OH)6,"{""Pb"": 1.0, ""Fe"": 3.0, ""P"": 2.0, ""O"": 14.0, ""H"": 7.0}",667.725,#556B2F,hexagonal,{47},1.5015e-08
Kipushite,Cu6(PO4)2(OH)6·H2O,"{""Cu"": 6.0, ""P"": 2.0, ""O"": 15.0, ""H"": 8.0}",691.273,#FFFFFF,monoclinic,{47},1.5015e-08
Kirchhoffite,CsBSi2O6,"{""Cs"": 1.0, ""B"": 1.0, ""Si"": 2.0, ""O"": 6.0}",295.884,#FFFFFF,tetragonal,{34},1.773e-08
Kirkiite,Pb10Bi3As3S19,"{""Pb"": 10.0, ""Bi"": 3.0, ""As"": 3.0, ""S"": 19.0}",3532.846,#708090,monoclinic,"{11,12,33}",7.357e-09
Kirschsteinite,CaFe2+(SiO4),"{""Ca"": 1.0, ""Fe"": 1.0, ""Si"": 1.0, ""O"": 4.0}",188.004,#556B2F,orthorhombic,"{5,6,7,31,35,56}",4.52736e-07
Kiryuite,NaMnAl(PO4)F3,"{""Na"": 1.0, ""Mn"": 1.0, ""Al"": 1.0, ""P"": 1.0, ""O"": 4.0, ""F"": 3.0}",256.874,#FFFFFF,monoclinic,{34},8.87e-10
Kishonite,VH2,"{""V"": 1.0, ""H"": 2.0}",52.958,#FFFFFF,cubic,{51},7.8125e-08
Kitagohaite,Pt7Cu,"{""Pt"": 7.0, ""Cu"": 1.0}",1429.106,#00BFFF,cubic,"{7,26}",1.21301e-07
Kitkaite,NiTeSe,"{""Ni"": 1.0, ""Te"": 1.0, ""Se"": 1.0}",265.264,#7FFF00,hexagonal,{33},1.2547e-08
Kittatinnyite,Ca2Mn2+Mn3+2(SiO4)2(OH)4·9H2O,"{""Ca"": 2.0, ""Mn"": 3.0, ""Si"": 2.0, ""O"": 21.0, ""H"": 22.0}",659.295,#FFFFFF,unknown,{32},1.214e-09
Kladnoite,C6H4(CO)2NH,"{""C"": 8.0, ""H"": 5.0, ""O"": 2.0, ""N"": 1.0}",147.133,#FFFFFF,monoclinic,"{50,54}",7.9365e-08
Klajite,MnCu4(AsO4)2(AsO3OH)2·9H2O,"{""Mn"": 1.0, ""Cu"": 4.0, ""As"": 4.0, ""O"": 25.0, ""H"": 20.0}",1028.945,#FFFFFF,triclinic,{47},7.508e-09
Klaprothite,Na6(UO2)(SO4)4(H2O)4,"{""Na"": 6.0, ""U"": 1.0, ""O"": 22.0, ""S"": 4.0, ""H"": 8.0}",864.252,#FFFFFF,monoclinic,"{47,55}",3.761e-09
Klebelsbergite,Sb3+4O4(SO4)(OH)2,"{""Sb"": 4.0, ""O"": 10.0, ""S"": 1.0, ""H"": 2.0}",681.106,#FFFFFF,orthorhombic,{47},3.003e-09
Kleberite,Fe3+Ti6O11(OH)5,"{""Fe"": 1.0, ""Ti"": 6.0, ""O"": 16.0, ""H"": 5.0}",604.071,#556B2F,monoclinic,{47},4.5045e-08
Kleemanite,ZnAl2(PO4)2(OH)2·3H2O,"{""Zn"": 1.0, ""Al"": 2.0, ""P"": 2.0, ""O"": 13.0, ""H"": 8.0}",397.343,#FFFFFF,monoclinic,{47},1.5015e-08
Klyuchevskite,K3Cu3Fe3+O2(SO4)4,"{""K"": 3.0, ""Cu"": 3.0, ""Fe"": 1.0, ""O"": 18.0, ""S"": 4.0}",779.999,#556B2F,monoclinic,{45},4.72e-10
Knasibfite,K3Na4(SiF6)3(BF4),"{""K"": 3.0, ""Na"": 4.0, ""Si"": 3.0, ""F"": 22.0, ""B"": 1.0}",722.275,#FFFFFF,orthorhombic,{45},1.179e-09
Knorringite,Mg3Cr2(SiO4)3,"{""Mg"": 3.0, ""Cr"": 2.0, ""Si"": 3.0, ""O"": 12.0}",453.15,#FFFFFF,cubic,{36},3.4364e-08
Koashvite,Na6CaTiSi6O18,"{""Na"": 6.0, ""Ca"": 1.0, ""Ti"": 1.0, ""Si"": 6.0, ""O"": 18.0}",682.377,#FFFFFF,orthorhombic,{35},4.132e-09
Kobokoboite,Al6(PO4)4(OH)6·11H2O,"{""Al"": 6.0, ""P"": 4.0, ""O"": 33.0, ""H"": 28.0}",841.979,#FFFFFF,triclinic,{47},1.5015e-08
Kobyashevite,Cu5(SO4)2(OH)6·4H2O,"{""Cu"": 5.0, ""S"": 2.0, ""O"": 18.0, ""H"": 14.0}",683.944,#FFFFFF,triclinic,"{45,47,55}",4.232e-09
Kochite,Ca2(MnZr)Na3Ti(Si2O7)2(OF)F2,"{""Ca"": 2.0, ""Mn"": 1.0, ""Zr"": 1.0, ""Na"": 3.0, ""Ti"": 1.0, ""Si"": 4.0, ""O"": 15.0, ""F"": 3.0}",752.474,#FFFFFF,triclinic,{35},6.89e-10
Kochkarite,PbBi4Te7,"{""Pb"": 1.0, ""Bi"": 4.0, ""Te"": 7.0}",1936.32,#D2B48C,hexagonal,{33},1.2547e-08
Kochsandorite,CaAl2(CO3)2(OH)4·H2O,"{""Ca"": 1.0, ""Al"": 2.0, ""C"": 2.0, ""O"": 11.0, ""H"": 6.0}",300.101,#FFFFFF,orthorhombic,"{47,50}",1.8678e-07
Koechlinite,Bi2MoO6,"{""Bi"": 2.0, ""Mo"": 1.0, ""O"": 6.0}",609.904,#D2B48C,orthorhombic,{47},1.5015e-07
Koenenite,Na4Mg9Al4Cl12(OH)22,"{""Na"": 4.0, ""Mg"": 9.0, ""Al"": 4.0, ""Cl"": 12.0, ""O"": 22.0, ""H"": 22.0}",1218.187,#FFFFFF,hexagonal,{25},4.7619e-08
Kogarkoite,Na3(SO4)F,"{""Na"": 3.0, ""S"": 1.0, ""O"": 4.0, ""F"": 1.0}",184.024,#FFFFFF,monoclinic,"{14,35,45,55}",4.783e-09
Kokchetavite,K(AlSi3O8),"{""K"": 1.0, ""Al"": 1.0, ""Si"": 3.0, ""O"": 8.0}",278.327,#FFFFFF,hexagonal,{39},2e-07
Kokinosite,Na2Ca2(V10O28)·24H2O,"{""Na"": 2.0, ""Ca"": 2.0, ""V"": 10.0, ""O"": 52.0, ""H"": 48.0}",1515.888,#FFFFFF,triclinic,"{47,55}",1.88029e-07
Koksharovite,CaMg2Fe3+4(VO4)6,"{""Ca"": 1.0, ""Mg"": 2.0, ""Fe"": 4.0, ""V"": 6.0, ""O"": 24.0}",1001.696,#556B2F,triclinic,{45},2.3585e-08
Koktaite,(NH4)2Ca(SO4)2·H2O,"{""N"": 2.0, ""H"": 10.0, ""Ca"": 1.0, ""S"": 2.0, ""O"": 9.0}",286.283,#FFFFFF,unknown,"{21,45,50,52,54}",7.368e-09
Kolarite,PbTeCl2,"{""Pb"": 1.0, ""Te"": 1.0, ""Cl"": 2.0}",405.7,#FFFFFF,orthorhombic,"{23,33}",1.771341e-06
Kolbeckite,Sc(PO4)·2H2O,"{""Sc"": 1.0, ""P"": 1.0, ""O"": 6.0, ""H"": 4.0}",175.956,#FFFFFF,monoclinic,"{31,47}",1.7824e-08
Kolfanite,Ca2Fe3+3O2(AsO4)3·2H2O,"{""Ca"": 2.0, ""Fe"": 3.0, ""O"": 16.0, ""As"": 3.0, ""H"": 4.0}",732.473,#556B2F,monoclinic,{47},1.5015e-07
Kolicite,Zn4Mn2+7(AsO4)2(SiO4)2(OH)8,"{""Zn"": 4.0, ""Mn"": 7.0, ""As"": 2.0, ""O"": 24.0, ""Si"": 2.0, ""H"": 8.0}",1244.14,#FFFFFF,orthorhombic,"{32,47}",8.721e-09
Kollerite,(NH4)2Fe3+(SO3)2(OH)·H2O,"{""N"": 2.0, ""H"": 11.0, ""Fe"": 1.0, ""S"": 2.0, ""O"": 8.0}",287.059,#556B2F,orthorhombic,"{50,54}",1.587e-09
Kolwezite,CuCo(CO3)(OH)2,"{""Cu"": 1.0, ""Co"": 1.0, ""C"": 1.0, ""O"": 5.0, ""H"": 2.0}",216.501,#FFFFFF,triclinic,{47},1.5015e-07
Kolymite,Cu7Hg6,"{""Cu"": 7.0, ""Hg"": 6.0}",1648.362,#00BFFF,cubic,{33},1.2547e-08
Kombatite,Pb14O9(VO4)2Cl4,"{""Pb"": 14.0, ""O"": 17.0, ""V"": 2.0, ""Cl"": 4.0}",3416.467,#FFFFFF,monoclinic,{47},1.5015e-07
Komkovite,BaZrSi3O9·3H2O,"{""Ba"": 1.0, ""Zr"": 1.0, ""Si"": 3.0, ""O"": 12.0, ""H"": 6.0}",510.845,#FFFFFF,hexagonal,"{23,36}",1.793158e-06
Konderite,PbCu3Rh8S16,"{""Pb"": 1.0, ""Cu"": 3.0, ""Rh"": 8.0, ""S"": 16.0}",1734.078,#708090,hexagonal,"{7,12,33}",3.427e-09
Koninckite,Fe3+(PO4)·3H2O,"{""Fe"": 1.0, ""P"": 1.0, ""O"": 7.0, ""H"": 6.0}",204.86,#556B2F,tetragonal,"{21,47}",2.7673e-08
Kononovite,NaMg(SO4)F,"{""Na"": 1.0, ""Mg"": 1.0, ""S"": 1.0, ""O"": 4.0, ""F"": 1.0}",162.349,#FFFFFF,monoclinic,{45},4.72e-10
Konyaite,Na2Mg(SO4)2·5H2O,"{""Na"": 2.0, ""Mg"": 1.0, ""S"": 2.0, ""O"": 13.0, ""H"": 10.0}",352.472,#FFFFFF,monoclinic,"{25,45,48,50}",4.974e-09
Konzettite,CaMn4+Te6+O6,"{""Ca"": 1.0, ""Mn"": 1.0, ""Te"": 1.0, ""O"": 6.0}",318.61,#FFFFFF,hexagonal,{},5e-08
Koritnigite,Zn(AsO3OH)·H2O,"{""Zn"": 1.0, ""As"": 1.0, ""O"": 5.0, ""H"": 3.0}",223.321,#FFFFFF,triclinic,"{47,55}",1.88029e-07
Kornelite,Fe3+2(SO4)3·7H2O (?),"{""Fe"": 2.0, ""S"": 3.0, ""O"": 19.0, ""H"": 14.0}",525.963,#556B2F,monoclinic,"{47,55}",3.761e-09
Korshunovskite,Mg2Cl(OH)3·4H2O,"{""Mg"": 2.0, ""Cl"": 1.0, ""O"": 7.0, ""H"": 11.0}",207.141,#FFFFFF,triclinic,{23},1.758794e-06
Koryakite,NaKMg2Al2(SO4)6,"{""Na"": 1.0, ""K"": 1.0, ""Mg"": 2.0, ""Al"": 2.0, ""S"": 6.0, ""O"": 24.0}",740.998,#FFFFFF,hexagonal,{45},4.72e-10
Kosmochlor,NaCr3+Si2O6,"{""Na"": 1.0, ""Cr"": 1.0, ""Si"": 2.0, ""O"": 6.0}",227.15,#FFFFFF,monoclinic,{5},1.06383e-07
Kosnarite,KZr2(PO4)3,"{""K"": 1.0, ""Zr"": 2.0, ""P"": 3.0, ""O"": 12.0}",506.456,#FFFFFF,hexagonal,{22},4.049e-09
Kostovite,AuCuTe4,"{""Au"": 1.0, ""Cu"": 1.0, ""Te"": 4.0}",770.916,#00BFFF,unknown,{33},1.2547e-08
Kostylevite,K2ZrSi3O9·H2O,"{""K"": 2.0, ""Zr"": 1.0, ""Si"": 3.0, ""O"": 10.0, ""H"": 2.0}",415.681,#FFFFFF,monoclinic,{35},1.3774e-08
Kotoite,Mg3(BO3)2,"{""Mg"": 3.0, ""B"": 2.0, ""O"": 6.0}",190.529,#FFFFFF,orthorhombic,{23},1.758794e-06
Kottenheimite,Ca3Si(SO4)2(OH)6·12H2O,"{""Ca"": 3.0, ""Si"": 1.0, ""S"": 2.0, ""O"": 26.0, ""H"": 30.0}",658.653,#FFFFFF,hexagonal,{47},3.003e-09
Kottigite,Zn3(AsO4)2·8H2O,"{""Zn"": 3.0, ""As"": 2.0, ""O"": 16.0, ""H"": 16.0}",618.096,#FFFFFF,monoclinic,{47},1.5015e-07
Koutekite,Cu5As2,"{""Cu"": 5.0, ""As"": 2.0}",467.574,#00BFFF,orthorhombic,{33},1.2547e-08
Kovdorskite,Mg2(PO4)(OH)·3H2O,"{""Mg"": 2.0, ""P"": 1.0, ""O"": 8.0, ""H"": 7.0}",214.632,#FFFFFF,monoclinic,"{35,45}",3.736e-09
Kozlowskiite,Ca4Fe2+Sn3(Si2O7)2(Si2O6OH)2,"{""Ca"": 4.0, ""Fe"": 1.0, ""Sn"": 3.0, ""Si"": 8.0, ""O"": 28.0, ""H"": 2.0}",1246.955,#556B2F,triclinic,{},1e-06