name,formula,elements,density,color,crystal
Wesselsite,SrCuSi4O10,"{""Sr"": 1.0, ""Cu"": 1.0, ""Si"": 4.0, ""O"": 10.0}",423.496,#FFFFFF,tetragonal
Westerveldite,FeAs,"{""Fe"": 1.0, ""As"": 1.0}",130.767,#8B4513,orthorhombic
Wetherillite,Na2Mg(UO2)2(SO4)4·18H2O,"{""Na"": 2.0, ""Mg"": 1.0, ""U"": 2.0, ""O"": 38.0, ""S"": 4.0, ""H"": 36.0}",1318.835,#FFFFFF,monoclinic
Wheatleyite,Na2Cu(C2O4)2·2H2O,"{""Na"": 2.0, ""Cu"": 1.0, ""C"": 4.0, ""O"": 10.0, ""H"": 4.0}",321.592,#FFFFFF,triclinic
Whelanite,Cu2Ca6[Si6O17(OH)](CO3)(OH)3(H2O)2,"{""Cu"": 2.0, ""Ca"": 6.0, ""Si"": 6.0, ""O"": 26.0, ""H"": 8.0, ""C"": 1.0}",972.119,#FFFFFF,orthorhombic
Wherryite,Pb7Cu2(SO4)4(SiO4)2(OH)2,"{""Pb"": 7.0, ""Cu"": 2.0, ""S"": 4.0, ""O"": 26.0, ""Si"": 2.0, ""H"": 2.0}",2179.892,#FFFFFF,monoclinic
Whewellite,Ca(C2O4)·H2O,"{""Ca"": 1.0, ""C"": 2.0, ""O"": 5.0, ""H"": 2.0}",146.111,#FFFFFF,monoclinic
Whitecapsite,H16Fe2+5Fe3+14Sb3+6(AsO4)18O16·120H2O,"{""H"": 256.0, ""Fe"": 19.0, ""Sb"": 6.0, ""As"": 18.0, ""O"": 208.0}",6726.051,#556B2F,hexagonal
Whiteite-(CaFeMg),CaFe2+Mg2Al2(PO4)4(OH)2·8H2O,"{""Ca"": 1.0, ""Fe"": 1.0, ""Mg"": 2.0, ""Al"": 2.0, ""P"": 4.0, ""O"": 26.0, ""H"": 18.0}",756.511,#556B2F,monoclinic
Whiteite-(CaMgMg),CaMg3Al2(PO4)4(OH)2·8H2O,"{""Ca"": 1.0, ""Mg"": 3.0, ""Al"": 2.0, ""P"": 4.0, ""O"": 26.0, ""H"": 18.0}",724.971,#FFFFFF,monoclinic
Whitlockite,Ca9Mg(PO3OH)(PO4)6,"{""Ca"": 9.0, ""Mg"": 1.0, ""P"": 7.0, ""O"": 28.0, ""H"": 1.0}",1050.805,#FFFFFF,hexagonal
Whitmoreite,Fe2+Fe3+2(PO4)2(OH)2·4H2O,"{""Fe"": 3.0, ""P"": 2.0, ""O"": 14.0, ""H"": 10.0}",463.549,#556B2F,monoclinic
Wickenburgite,Pb3CaAl2Si10O27·4H2O,"{""Pb"": 3.0, ""Ca"": 1.0, ""Al"": 2.0, ""Si"": 10.0, ""O"": 31.0, ""H"": 8.0}",1500.525,#FFFFFF,hexagonal
Widenmannite,Pb2(OH)2[(UO2)(CO3)2],"{""Pb"": 2.0, ""O"": 10.0, ""H"": 2.0, ""U"": 1.0, ""C"": 2.0}",838.458,#FFFFFF,orthorhombic
Widgiemoolthalite,Ni5(CO3)4(OH)2·4-5H2O,"{""Ni"": 5.0, ""C"": 4.0, ""O"": 19.0, ""H"": 12.0}",657.586,#FFFFFF,monoclinic
Wightmanite,Mg5O(BO3)(OH)5·2H2O,"{""Mg"": 5.0, ""O"": 11.0, ""B"": 1.0, ""H"": 9.0}",317.396,#FFFFFF,monoclinic
Wilcoxite,MgAl(SO4)2F·17H2O,"{""Mg"": 1.0, ""Al"": 1.0, ""S"": 2.0, ""O"": 25.0, ""F"": 1.0, ""H"": 34.0}",568.652,#FFFFFF,triclinic
Wildcatite,CaFe3+Te6+O5(OH),"{""Ca"": 1.0, ""Fe"": 1.0, ""Te"": 1.0, ""O"": 6.0, ""H"": 1.0}",320.525,#556B2F,hexagonal
Wilhelmramsayite,Cu3FeS3·2H2O,"{""Cu"": 3.0, ""Fe"": 1.0, ""S"": 3.0, ""H"": 4.0, ""O"": 2.0}",378.693,#556B2F,orthorhombic
Wilkinsonite,Na4[Fe2+8Fe3+4]O4[Si12O36],"{""Na"": 4.0, ""Fe"": 12.0, ""O"": 40.0, ""Si"": 12.0}",1739.08,#556B2F,triclinic
Wilkmanite,Ni3Se4,"{""Ni"": 3.0, ""Se"": 4.0}",491.963,#7FFF00,monoclinic
Willemseite,Ni3Si4O10(OH)2,"{""Ni"": 3.0, ""Si"": 4.0, ""O"": 12.0, ""H"": 2.0}",482.423,#FFFFFF,monoclinic
Willhendersonite,KCa(Si3Al3)O12·5H2O,"{""K"": 1.0, ""Ca"": 1.0, ""Si"": 3.0, ""Al"": 3.0, ""O"": 17.0, ""H"": 10.0}",526.44,#FFFFFF,triclinic
Willyamite,CoSbS,"{""Co"": 1.0, ""Sb"": 1.0, ""S"": 1.0}",212.753,#A9A9A9,orthorhombic
Winstanleyite,TiTe4+3O8,"{""Ti"": 1.0, ""Te"": 3.0, ""O"": 8.0}",558.659,#FFFFFF,cubic
Wiperamingaite,NaCaFe3+Al(PO4)F5(OH)·H2O,"{""Na"": 1.0, ""Ca"": 1.0, ""Fe"": 1.0, ""Al"": 1.0, ""P"": 1.0, ""O"": 6.0, ""F"": 5.0, ""H"": 3.0}",370.877,#556B2F,orthorhombic
Witherite,Ba(CO3),"{""Ba"": 1.0, ""C"": 1.0, ""O"": 3.0}",197.338,#FFFFFF,orthorhombic
Wittichenite,Cu3BiS3,"{""Cu"": 3.0, ""Bi"": 1.0, ""S"": 3.0}",495.798,#A9A9A9,orthorhombic
Witzkeite,Na4K4Ca(NO3)2(SO4)4·2H2O,"{""Na"": 4.0, ""K"": 4.0, ""Ca"": 1.0, ""N"": 2.0, ""O"": 24.0, ""S"": 4.0, ""H"": 4.0}",832.692,#FFFFFF,monoclinic
Wodegongjieite,KCa3(Al7Si9)O32,"{""K"": 1.0, ""Ca"": 3.0, ""Al"": 7.0, ""Si"": 9.0, ""O"": 32.0}",1112.939,#FFFFFF,hexagonal
Wolfeite,Fe2+2(PO4)(OH),"{""Fe"": 2.0, ""P"": 1.0, ""O"": 5.0, ""H"": 1.0}",223.667,#556B2F,monoclinic
Wolfsriedite,Pb[(UO2)2(W6+Fe3+)O7(OH)](H2O)3,"{""Pb"": 1.0, ""U"": 2.0, ""O"": 15.0, ""W"": 1.0, ""Fe"": 1.0, ""H"": 7.0}",1169.986,#556B2F,monoclinic
Wollastonite,CaSiO3,"{""Ca"": 1.0, ""Si"": 1.0, ""O"": 3.0}",116.16,#FFFFFF,triclinic
Wolsendorfite,Pb7(UO2)14O19(OH)4·12H2O,"{""Pb"": 7.0, ""U"": 14.0, ""O"": 63.0, ""H"": 28.0}",5818.981,#FFFFFF,orthorhombic
Woodallite,Mg6Cr2(OH)16Cl2·4H2O,"{""Mg"": 6.0, ""Cr"": 2.0, ""O"": 20.0, ""H"": 24.0, ""Cl"": 2.0}",664.894,#FFFFFF,hexagonal
Woodhouseite,CaAl3(SO4)(PO4)(OH)6,"{""Ca"": 1.0, ""Al"": 3.0, ""S"": 1.0, ""O"": 14.0, ""P"": 1.0, ""H"": 6.0}",414.092,#FFFFFF,hexagonal
Wooldridgeite,Na2CaCu2+2(P2O7)2·10H2O,"{""Na"": 2.0, ""Ca"": 1.0, ""Cu"": 2.0, ""P"": 4.0, ""O"": 24.0, ""H"": 20.0}",741.182,#FFFFFF,orthorhombic
Wortupaite,MgNi2+2(Te4+O3)3·3H2O,"{""Mg"": 1.0, ""Ni"": 2.0, ""Te"": 3.0, ""O"": 12.0, ""H"": 6.0}",722.527,#FFFFFF,hexagonal
Wrightite,K2Al2O(AsO4)2,"{""K"": 2.0, ""Al"": 2.0, ""O"": 9.0, ""As"": 2.0}",425.995,#FFFFFF,orthorhombic
Wroewolfeite,Cu4(SO4)(OH)6·2H2O,"{""Cu"": 4.0, ""S"": 1.0, ""O"": 12.0, ""H"": 10.0}",488.312,#FFFFFF,monoclinic
Wulfenite,PbMoO4,"{""Pb"": 1.0, ""Mo"": 1.0, ""O"": 4.0}",367.146,#FFFFFF,tetragonal
Wulffite,K3NaCu4O2(SO4)4,"{""K"": 3.0, ""Na"": 1.0, ""Cu"": 4.0, ""O"": 18.0, ""S"": 4.0}",810.69,#FFFFFF,orthorhombic
Wupatkiite,CoAl2(SO4)4·22H2O,"{""Co"": 1.0, ""Al"": 2.0, ""S"": 4.0, ""O"": 38.0, ""H"": 44.0}",893.451,#FFFFFF,monoclinic
Wustite,FeO,"{""Fe"": 1.0, ""O"": 1.0}",71.844,#8B4513,cubic
Wuyanzhiite,Cu2S,"{""Cu"": 2.0, ""S"": 1.0}",159.152,#A9A9A9,tetragonal
Wyartite,CaU5+(UO2)2(CO3)O4(OH)·7H2O,"{""Ca"": 1.0, ""U"": 3.0, ""O"": 19.0, ""C"": 1.0, ""H"": 15.0}",1085.28,#FFFFFF,orthorhombic
Wycheproofite,NaAlZr(PO4)2(OH)2·H2O,"{""Na"": 1.0, ""Al"": 1.0, ""Zr"": 1.0, ""P"": 2.0, ""O"": 11.0, ""H"": 4.0}",383.165,#FFFFFF,triclinic
Xanthiosite,Ni3(AsO4)2,"{""Ni"": 3.0, ""As"": 2.0, ""O"": 8.0}",453.915,#7FFF00,monoclinic
Xanthoconite,Ag3AsS3,"{""Ag"": 3.0, ""As"": 1.0, ""S"": 3.0}",494.712,#FFD700,monoclinic
Xanthoxenite,Ca4Fe3+2(PO4)4(OH)2·3H2O,"{""Ca"": 4.0, ""Fe"": 2.0, ""P"": 4.0, ""O"": 21.0, ""H"": 8.0}",739.941,#556B2F,
Xenophyllite,Na4Fe7(PO4)6,"{""Na"": 4.0, ""Fe"": 7.0, ""P"": 6.0, ""O"": 24.0}",1052.695,#556B2F,
Xenotime-(Gd),Gd(PO4),"{""Gd"": 1.0, ""P"": 1.0, ""O"": 4.0}",252.22,#FFFFFF,tetragonal
Xenotime-(Y),Y(PO4),"{""Y"": 1.0, ""P"": 1.0, ""O"": 4.0}",183.876,#FFFFFF,tetragonal
Xenotime-(Yb),Yb(PO4),"{""Yb"": 1.0, ""P"": 1.0, ""O"": 4.0}",268.02,#FFFFFF,tetragonal
Xiangjiangite,Fe3+(UO2)4(PO4)2(SO4)2(OH)·22H2O,"{""Fe"": 1.0, ""U"": 4.0, ""O"": 47.0, ""P"": 2.0, ""S"": 2.0, ""H"": 45.0}",1931.346,#556B2F,orthorhombic
Xianhuaite-(Ce),K2CeNb5O15,"{""K"": 2.0, ""Ce"": 1.0, ""Nb"": 5.0, ""O"": 15.0}",922.831,#FFFFFF,tetragonal
Xieite,FeCr2O4,"{""Fe"": 1.0, ""Cr"": 2.0, ""O"": 4.0}",223.833,#228B22,orthorhombic
Xiexiandeite,SiO2,"{""Si"": 1.0, ""O"": 2.0}",60.083,#FFFFFF,monoclinic
Xifengite,Fe5Si3,"{""Fe"": 5.0, ""Si"": 3.0}",363.48,#8B4513,hexagonal
Xilingolite,Pb3Bi2S6,"{""Pb"": 3.0, ""Bi"": 2.0, ""S"": 6.0}",1231.92,#708090,monoclinic
Ximengite,Bi(PO4),"{""Bi"": 1.0, ""P"": 1.0, ""O"": 4.0}",303.95,#D2B48C,hexagonal
Xingzhongite,Pb2+Ir3+2S4,"{""Pb"": 1.0, ""Ir"": 2.0, ""S"": 4.0}",719.88,#708090,cubic
Xitieshanite,Fe3+(SO4)Cl·6H2O,"{""Fe"": 1.0, ""S"": 1.0, ""O"": 10.0, ""Cl"": 1.0, ""H"": 12.0}",295.441,#556B2F,monoclinic
Xocomecatlite,Cu3(Te6+O4)(OH)4,"{""Cu"": 3.0, ""Te"": 1.0, ""O"": 8.0, ""H"": 4.0}",450.262,#FFFFFF,
Xonotlite,Ca6Si6O17(OH)2,"{""Ca"": 6.0, ""Si"": 6.0, ""O"": 19.0, ""H"": 2.0}",714.975,#FFFFFF,monoclinic
Xuite,Ca3Fe2[AlO3(OH)]3,"{""Ca"": 3.0, ""Fe"": 2.0, ""Al"": 3.0, ""O"": 12.0, ""H"": 3.0}",507.882,#556B2F,cubic
Xuwenyuanite,Ag9Fe3+Te2S4,"{""Ag"": 9.0, ""Fe"": 1.0, ""Te"": 2.0, ""S"": 4.0}",1410.115,#DAA520,cubic
Yagiite,NaMg2(AlMg2Si12)O30,"{""Na"": 1.0, ""Mg"": 4.0, ""Al"": 1.0, ""Si"": 12.0, ""O"": 30.0}",964.182,#FFFFFF,hexagonal
Yakovenchukite-(Y),K3NaCaY2Si12O30·4H2O,"{""K"": 3.0, ""Na"": 1.0, ""Ca"": 1.0, ""Y"": 2.0, ""Si"": 12.0, ""O"": 34.0, ""H"": 8.0}",1247.224,#FFFFFF,orthorhombic
Yakubovichite,CaNi2Fe3+(PO4)3,"{""Ca"": 1.0, ""Ni"": 2.0, ""Fe"": 1.0, ""P"": 3.0, ""O"": 12.0}",498.219,#556B2F,orthorhombic
Yamhamelachite,KCrP2O7,"{""K"": 1.0, ""Cr"": 1.0, ""P"": 2.0, ""O"": 7.0}",265.035,#FFFFFF,monoclinic
Yancowinnaite,PbCuAl(AsO4)2OH·H2O,"{""Pb"": 1.0, ""Cu"": 1.0, ""Al"": 1.0, ""As"": 2.0, ""O"": 10.0, ""H"": 3.0}",610.586,#FFFFFF,triclinic
Yarlongite,(Cr4Fe4Ni)C4,"{""Cr"": 4.0, ""Fe"": 4.0, ""Ni"": 1.0, ""C"": 4.0}",538.101,#556B2F,hexagonal
Yaroshevskite,Cu9O2(VO4)4Cl2,"{""Cu"": 9.0, ""O"": 18.0, ""V"": 4.0, ""Cl"": 2.0}",1134.564,#FFFFFF,triclinic
Yaroslavite,Ca3Al2F10(OH)2·H2O,"{""Ca"": 3.0, ""Al"": 2.0, ""F"": 10.0, ""O"": 3.0, ""H"": 4.0}",416.207,#FFFFFF,orthorhombic
Yarrowite,Cu9S8,"{""Cu"": 9.0, ""S"": 8.0}",828.394,#A9A9A9,hexagonal
Yarzhemskiite,K[B5O7(OH)2]·H2O,"{""K"": 1.0, ""B"": 5.0, ""O"": 10.0, ""H"": 4.0}",257.17,#FFFFFF,monoclinic
Yavapaiite,KFe3+(SO4)2,"{""K"": 1.0, ""Fe"": 1.0, ""S"": 2.0, ""O"": 8.0}",287.055,#556B2F,monoclinic
Yeelimite,Ca4Al6O12(SO4),"{""Ca"": 4.0, ""Al"": 6.0, ""O"": 16.0, ""S"": 1.0}",610.248,#FFFFFF,cubic
Yecoraite,Fe3+3Bi5O9(Te4+O3)(Te6+O4)2·9H2O,"{""Fe"": 3.0, ""Bi"": 5.0, ""O"": 29.0, ""Te"": 3.0, ""H"": 18.0}",2077.35,#556B2F,
Yegorovite,Na4[Si2O4(OH)2]2·7H2O,"{""Na"": 4.0, ""Si"": 4.0, ""O"": 19.0, ""H"": 18.0}",526.425,#FFFFFF,monoclinic
Yeite,TiSi,"{""Ti"": 1.0, ""Si"": 1.0}",75.952,#FFFFFF,orthorhombic
Yellowcatite,KNaFe3+2(Se4+O3)2(V5+2O7)·7H2O,"{""K"": 1.0, ""Na"": 1.0, ""Fe"": 2.0, ""Se"": 2.0, ""O"": 20.0, ""V"": 2.0, ""H"": 14.0}",767.696,#556B2F,hexagonal
Yeomanite,Pb2O(OH)Cl,"{""Pb"": 2.0, ""O"": 2.0, ""H"": 1.0, ""Cl"": 1.0}",482.856,#FFFFFF,orthorhombic
Yimengite,K[Ti3Cr5Fe3+2Mg2]O19,"{""K"": 1.0, ""Ti"": 3.0, ""Cr"": 5.0, ""Fe"": 2.0, ""Mg"": 2.0, ""O"": 19.0}",906.96,#556B2F,hexagonal
Yingjiangite,K2Ca(UO2)7(PO4)4(OH)6·6H2O,"{""K"": 2.0, ""Ca"": 1.0, ""U"": 7.0, ""O"": 42.0, ""P"": 4.0, ""H"": 18.0}",2598.482,#FFFFFF,orthorhombic
Yoderite,(MgAl3)(MgAl)Al2O2(SiO4)4(OH)2,"{""Mg"": 2.0, ""Al"": 6.0, ""O"": 20.0, ""Si"": 4.0, ""H"": 2.0}",644.838,#FFFFFF,monoclinic
Yttriaite-(Y),Y2O3,"{""Y"": 2.0, ""O"": 3.0}",225.809,#FFFFFF,cubic
Yttrialite-(Y),Y2Si2O7,"{""Y"": 2.0, ""Si"": 2.0, ""O"": 7.0}",345.975,#FFFFFF,monoclinic
Yttrotungstite-(Ce),CeW2O6(OH)3,"{""Ce"": 1.0, ""W"": 2.0, ""O"": 9.0, ""H"": 3.0}",654.815,#FFFFFF,monoclinic
Yttrotungstite-(Nd),NdW2O7(OH)·H2O,"{""Nd"": 1.0, ""W"": 2.0, ""O"": 9.0, ""H"": 3.0}",658.935,#FFFFFF,monoclinic
Yuchuanite-(Y),Y2(CO3)3·H2O,"{""Y"": 2.0, ""C"": 3.0, ""O"": 10.0, ""H"": 2.0}",375.851,#FFFFFF,triclinic
Yugawaralite,Ca(Si6Al2)O16·4H2O,"{""Ca"": 1.0, ""Si"": 6.0, ""Al"": 2.0, ""O"": 20.0, ""H"": 8.0}",590.596,#FFFFFF,monoclinic
Yukonite,Ca2Fe3+3(AsO4)3(OH)4·4H2O,"{""Ca"": 2.0, ""Fe"": 3.0, ""As"": 3.0, ""O"": 20.0, ""H"": 12.0}",804.533,#556B2F,
Yunhaoite,K2(MoO4),"{""K"": 2.0, ""Mo"": 1.0, ""O"": 4.0}",238.142,#FFFFFF,monoclinic
Yusupovite,Na2Zr(Si6O15)(H2O)3,"{""Na"": 2.0, ""Zr"": 1.0, ""Si"": 6.0, ""O"": 18.0, ""H"": 6.0}",599.744,#FFFFFF,monoclinic
Yuzuxiangite,Sr3Fe3+(Si2O6)2(OH)·3H2O,"{""Sr"": 3.0, ""Fe"": 1.0, ""Si"": 4.0, ""O"": 16.0, ""H"": 7.0}",694.085,#556B2F,monoclinic
Yvonite,Cu(AsO3OH)·2H2O,"{""Cu"": 1.0, ""As"": 1.0, ""O"": 6.0, ""H"": 5.0}",239.502,#FFFFFF,triclinic
Zabuyelite,Li2(CO3),"{""Li"": 2.0, ""C"": 1.0, ""O"": 3.0}",73.888,#FFFFFF,monoclinic
Zaccariniite,RhNiAs,"{""Rh"": 1.0, ""Ni"": 1.0, ""As"": 1.0}",236.525,#7FFF00,tetragonal
Zadovite,BaCa6[(SiO4)(PO4)](PO4)2F,"{""Ba"": 1.0, ""Ca"": 6.0, ""Si"": 1.0, ""O"": 16.0, ""P"": 3.0, ""F"": 1.0}",773.787,#FFFFFF,hexagonal
Zaherite,Al12(SO4)5(OH)26·20H2O,"{""Al"": 12.0, ""S"": 5.0, ""O"": 66.0, ""H"": 66.0}",1606.546,#FFFFFF,triclinic
Zairite,BiFe3+3(PO4)2(OH)6,"{""Bi"": 1.0, ""Fe"": 3.0, ""P"": 2.0, ""O"": 14.0, ""H"": 6.0}",668.497,#556B2F,hexagonal
Zalesiite,CaCu6(AsO4)2(AsO3OH)(OH)6·3H2O,"{""Ca"": 1.0, ""Cu"": 6.0, ""As"": 3.0, ""O"": 21.0, ""H"": 13.0}",995.203,#FFFFFF,hexagonal
Zanazziite,Ca2Be4Mg5(PO4)6(OH)4·6H2O,"{""Ca"": 2.0, ""Be"": 4.0, ""Mg"": 5.0, ""P"": 6.0, ""O"": 34.0, ""H"": 16.0}",983.6678,#FFFFFF,monoclinic
Zangboite,TiFeSi2,"{""Ti"": 1.0, ""Fe"": 1.0, ""Si"": 2.0}",159.882,#8B4513,orthorhombic
Zapatalite,Cu3Al4(PO4)3(OH)9·4H2O,"{""Cu"": 3.0, ""Al"": 4.0, ""P"": 3.0, ""O"": 25.0, ""H"": 17.0}",808.599,#FFFFFF,tetragonal
Zaratite,Ni3(CO3)(OH)4·4H2O,"{""Ni"": 3.0, ""C"": 1.0, ""O"": 11.0, ""H"": 12.0}",376.175,#FFFFFF,
Zavaritskite,BiOF,"{""Bi"": 1.0, ""O"": 1.0, ""F"": 1.0}",243.977,#D2B48C,tetragonal
Zavyalovite,Ag2TeS3,"{""Ag"": 2.0, ""Te"": 1.0, ""S"": 3.0}",439.52,#A9A9A9,monoclinic
Zaykovite,Rh3Se4,"{""Rh"": 3.0, ""Se"": 4.0}",624.614,#FFFFFF,monoclinic
Zdenekite,NaPbCu5(AsO4)4Cl·5H2O,"{""Na"": 1.0, ""Pb"": 1.0, ""Cu"": 5.0, ""As"": 4.0, ""O"": 21.0, ""Cl"": 1.0, ""H"": 10.0}",1229.117,#FFFFFF,monoclinic
Zektzerite,NaLiZrSi6O15,"{""Na"": 1.0, ""Li"": 1.0, ""Zr"": 1.0, ""Si"": 6.0, ""O"": 15.0}",529.649,#FFFFFF,orthorhombic
Zellerite,Ca(UO2)(CO3)2·5H2O,"{""Ca"": 1.0, ""U"": 1.0, ""O"": 13.0, ""C"": 2.0, ""H"": 10.0}",520.197,#FFFFFF,orthorhombic
Zemkorite,Na2Ca(CO3)2,"{""Na"": 2.0, ""Ca"": 1.0, ""C"": 2.0, ""O"": 6.0}",206.074,#FFFFFF,hexagonal
Zeophyllite,Ca13Si10O28(OH)2F8·6H2O,"{""Ca"": 13.0, ""Si"": 10.0, ""O"": 36.0, ""H"": 14.0, ""F"": 8.0}",1543.924,#FFFFFF,hexagonal
Zeravshanite,Na2Cs4Zr3Si18O45·2H2O,"{""Na"": 2.0, ""Cs"": 4.0, ""Zr"": 3.0, ""Si"": 18.0, ""O"": 47.0, ""H"": 4.0}",2112.807,#FFFFFF,monoclinic
Zeunerite,Cu(UO2)2(AsO4)2·12H2O,"{""Cu"": 1.0, ""U"": 2.0, ""O"": 24.0, ""As"": 2.0, ""H"": 24.0}",1097.618,#FFFFFF,tetragonal
Zhangpeishanite,BaFCl,"{""Ba"": 1.0, ""F"": 1.0, ""Cl"": 1.0}",191.778,#FFFFFF,tetragonal
Zharchikhite,Al(OH)2F,"{""Al"": 1.0, ""O"": 2.0, ""H"": 2.0, ""F"": 1.0}",79.994,#FFFFFF,monoclinic
Zhemchuzhnikovite,NaMgAl(C2O4)3·9H2O,"{""Na"": 1.0, ""Mg"": 1.0, ""Al"": 1.0, ""C"": 6.0, ""O"": 21.0, ""H"": 18.0}",500.466,#FFFFFF,hexagonal
Zhengminghuaite,Cu6Fe3As4S12,"{""Cu"": 6.0, ""Fe"": 3.0, ""As"": 4.0, ""S"": 12.0}",1233.219,#DAA520,hexagonal
Zhenruite,(MoO3)2·H2O,"{""Mo"": 2.0, ""O"": 7.0, ""H"": 2.0}",305.909,#FFFFFF,monoclinic
Zhiqinite,TiSi2,"{""Ti"": 1.0, ""Si"": 2.0}",104.037,#FFFFFF,orthorhombic
Ziesite,Cu2V5+2O7,"{""Cu"": 2.0, ""V"": 2.0, ""O"": 7.0}",340.969,#00BFFF,triclinic
Zigrasite,MgZr(PO4)2·4H2O,"{""Mg"": 1.0, ""Zr"": 1.0, ""P"": 2.0, ""O"": 12.0, ""H"": 8.0}",377.529,#FFFFFF,triclinic
Zilbermintsite-(La),(CaLa5)(Fe3+Al3Fe2+)[Si2O7][SiO4]5O(OH)3,"{""Ca"": 1.0, ""La"": 5.0, ""Fe"": 2.0, ""Al"": 3.0, ""Si"": 7.0, ""O"": 31.0, ""H"": 3.0}",1622.852,#556B2F,monoclinic
Ziminaite,Fe3+(VO4),"{""Fe"": 1.0, ""V"": 1.0, ""O"": 4.0}",170.783,#8B4513,triclinic
Zinkenite,Pb9Sb22S42,"{""Pb"": 9.0, ""Sb"": 22.0, ""S"": 42.0}",5890.04,#708090,hexagonal
Zippeite,K2[(UO2)4(SO4)2O2(OH)2](H2O)4,"{""K"": 2.0, ""U"": 4.0, ""O"": 24.0, ""S"": 2.0, ""H"": 10.0}",1488.492,#FFFFFF,orthorhombic
Zipserite,Bi5S4,"{""Bi"": 5.0, ""S"": 4.0}",1173.14,#A9A9A9,hexagonal
Zircarsite,Na18Cu12ZrO8(AsO4)8Cl6,"{""Na"": 18.0, ""Cu"": 12.0, ""Zr"": 1.0, ""O"": 40.0, ""As"": 8.0, ""Cl"": 6.0}",2719.632,#FFFFFF,cubic
Zircon,Zr(SiO4),"{""Zr"": 1.0, ""Si"": 1.0, ""O"": 4.0}",183.305,#FFFFFF,tetragonal
Zircophyllite,K2NaFe2+7Zr2(Si4O12)2O2(OH)4F,"{""K"": 2.0, ""Na"": 1.0, ""Fe"": 7.0, ""Zr"": 2.0, ""Si"": 8.0, ""O"": 30.0, ""H"": 4.0, ""F"": 1.0}",1402.229,#556B2F,
Zircosulfate,Zr(SO4)2·4H2O,"{""Zr"": 1.0, ""S"": 2.0, ""O"": 12.0, ""H"": 8.0}",355.396,#FFFFFF,orthorhombic
Ziroite,ZrO2,"{""Zr"": 1.0, ""O"": 2.0}",123.222,#FFFFFF,tetragonal
Zirsinalite,Na6CaZrSi6O18,"{""Na"": 6.0, ""Ca"": 1.0, ""Zr"": 1.0, ""Si"": 6.0, ""O"": 18.0}",725.734,#FFFFFF,hexagonal
Zlatogorite,CuNiSb2,"{""Cu"": 1.0, ""Ni"": 1.0, ""Sb"": 2.0}",365.759,#00BFFF,hexagonal
Zoisite,Ca2Al3[Si2O7][SiO4]O(OH),"{""Ca"": 2.0, ""Al"": 3.0, ""Si"": 3.0, ""O"": 13.0, ""H"": 1.0}",454.352,#FFFFFF,orthorhombic
Zoisite-(Pb),CaPbAl3[Si2O7][SiO4]O(OH),"{""Ca"": 1.0, ""Pb"": 1.0, ""Al"": 3.0, ""Si"": 3.0, ""O"": 13.0, ""H"": 1.0}",621.474,#FFFFFF,orthorhombic
Zolenskyite,FeCr2S4,"{""Fe"": 1.0, ""Cr"": 2.0, ""S"": 4.0}",288.077,#DAA520,monoclinic
Zolotarevite,Na5Zr[Si6O15(OH)3]·3H2O,"{""Na"": 5.0, ""Zr"": 1.0, ""Si"": 6.0, ""O"": 21.0, ""H"": 9.0}",719.735,#FFFFFF,hexagonal
Zoltaiite,BaV4+2V3+12Si2O27,"{""Ba"": 1.0, ""V"": 14.0, ""Si"": 2.0, ""O"": 27.0}",1338.661,#FFFFFF,hexagonal
Zoubekite,AgPb4Sb4S10,"{""Ag"": 1.0, ""Pb"": 4.0, ""Sb"": 4.0, ""S"": 10.0}",1744.31,#708090,orthorhombic
Zoyashlyukovaite,MoC,"{""Mo"": 1.0, ""C"": 1.0}",107.961,#FFFFFF,hexagonal
Zubkovaite,Ca3Cu3(AsO4)4,"{""Ca"": 3.0, ""Cu"": 3.0, ""As"": 4.0, ""O"": 16.0}",866.544,#FFFFFF,monoclinic
Zugshunstite-(Ce),CeAl(SO4)2(C2O4)·12H2O,"{""Ce"": 1.0, ""Al"": 1.0, ""S"": 2.0, ""O"": 24.0, ""C"": 2.0, ""H"": 24.0}",663.412,#FFFFFF,monoclinic
Zuktamrurite,FeP2,"{""Fe"": 1.0, ""P"": 2.0}",117.793,#8B4513,orthorhombic
Zvestovite-(Fe),Ag6(Ag4Fe2)As4S13,"{""Ag"": 10.0, ""Fe"": 2.0, ""As"": 4.0, ""S"": 13.0}",1906.858,#DAA520,cubic
Zvyagintsevite,Pd3Pb,"{""Pd"": 3.0, ""Pb"": 1.0}",526.46,#FFFFFF,cubic
Zwieselite,Fe2+2(PO4)F,"{""Fe"": 2.0, ""P"": 1.0, ""O"": 4.0, ""F"": 1.0}",225.658,#556B2F,monoclinic
Zykaite,Fe3+4(AsO4)3(SO4)(OH)·15H2O,"{""Fe"": 4.0, ""As"": 3.0, ""O"": 32.0, ""S"": 1.0, ""H"": 31.0}",1023.422,#556B2F,orthorhombic