name,formula,elements,density,color,crystal_system,dna
Magnesiovesuvianite,Ca19Mg(Al11Mg)Si18O69(OH)9,"{""Ca"": 19.0, ""Mg"": 2.0, ""Al"": 11.0, ""Si"": 18.0, ""O"": 78.0, ""H"": 9.0}",2869.61,#FFFFFF,tetragonal,"{""system"": ""tetragonal"", ""scale"": [1.0, 1.0, 1.4], ""optical"": {""transparent"": 1, ""refraction"": 1.5, ""birefringence"": 0.01}}"
Magnesiovoltaite,K2Mg5Fe3+3Al(SO4)12·18H2O,"{""K"": 2.0, ""Mg"": 5.0, ""Fe"": 3.0, ""Al"": 1.0, ""S"": 12.0, ""O"": 66.0, ""H"": 36.0}",1871.29,#556B2F,cubic,"{""system"": ""cubic"", ""scale"": [1.0, 1.0, 1.0], ""optical"": {""transparent"": 0, ""refraction"": 0.0, ""birefringence"": 0.0}}"
Magnesite,Mg(CO3),"{""Mg"": 1.0, ""C"": 1.0, ""O"": 3.0}",84.32,#FFFFFF,hexagonal,"{""system"": ""hexagonal"", ""scale"": [1.0, 1.0, 1.6], ""optical"": {""transparent"": 1, ""refraction"": 1.5, ""birefringence"": 0.01}}"
Magnetite,Fe2+Fe3+2O4,"{""Fe"": 3.0, ""O"": 4.0}",231.55,#8B4513,cubic,"{""system"": ""cubic"", ""scale"": [1.0, 1.0, 1.0], ""optical"": {""transparent"": 0, ""refraction"": 0.0, ""birefringence"": 0.0}}"
Magnetoplumbite,PbFe3+12O19,"{""Pb"": 1.0, ""Fe"": 12.0, ""O"": 19.0}",1181.4,#8B4513,hexagonal,"{""system"": ""hexagonal"", ""scale"": [1.0, 1.0, 1.6], ""optical"": {""transparent"": 0, ""refraction"": 0.0, ""birefringence"": 0.0}}"
Magnioursilite,Mg4(UO2)4(Si2O5)5(OH)6·20H2O,"{""Mg"": 4.0, ""U"": 4.0, ""O"": 59.0, ""Si"": 10.0, ""H"": 46.0}",2320.63,#FFFFFF,orthorhombic,"{""system"": ""orthorhombic"", ""scale"": [0.8, 1.0, 1.2], ""optical"": {""transparent"": 1, ""refraction"": 1.5, ""birefringence"": 0.01}}"
Magnolite,Hg1+2(Te4+O3),"{""Hg"": 2.0, ""Te"": 1.0, ""O"": 3.0}",576.78,#FFFFFF,orthorhombic,"{""system"": ""orthorhombic"", ""scale"": [0.8, 1.0, 1.2], ""optical"": {""transparent"": 1, ""refraction"": 1.5, ""birefringence"": 0.01}}"
Magselite,[Mg(H2O)6](Se4+O3),"{""Mg"": 1.0, ""H"": 12.0, ""O"": 9.0, ""Se"": 1.0}",259.37,#FFFFFF,hexagonal,"{""system"": ""hexagonal"", ""scale"": [1.0, 1.0, 1.6], ""optical"": {""transparent"": 1, ""refraction"": 1.5, ""birefringence"": 0.01}}"
Maikainite,Cu10Fe3MoGe3S16,"{""Cu"": 10.0, ""Fe"": 3.0, ""Mo"": 1.0, ""Ge"": 3.0, ""S"": 16.0}",1629.85,#DAA520,cubic,"{""system"": ""cubic"", ""scale"": [1.0, 1.0, 1.0], ""optical"": {""transparent"": 0, ""refraction"": 0.0, ""birefringence"": 0.0}}"
Majakite,PdNiAs,"{""Pd"": 1.0, ""Ni"": 1.0, ""As"": 1.0}",240.03,#7FFF00,hexagonal,"{""system"": ""hexagonal"", ""scale"": [1.0, 1.0, 1.6], ""optical"": {""transparent"": 0, ""refraction"": 0.0, ""birefringence"": 0.0}}"
Majindeite,Mg2Mo3O8,"{""Mg"": 2.0, ""Mo"": 3.0, ""O"": 8.0}",464.47,#FFFFFF,hexagonal,"{""system"": ""hexagonal"", ""scale"": [1.0, 1.0, 1.6], ""optical"": {""transparent"": 1, ""refraction"": 1.5, ""birefringence"": 0.01}}"
Majorite,Mg3(MgSi)(SiO4)3,"{""Mg"": 4.0, ""Si"": 4.0, ""O"": 12.0}",401.6,#FFFFFF,cubic,"{""system"": ""cubic"", ""scale"": [1.0, 1.0, 1.0], ""optical"": {""transparent"": 1, ""refraction"": 1.5, ""birefringence"": 0.0}}"
Makarochkinite,Ca4[Fe2+8Fe3+2Ti2]O4[Si8Be2Al2O36],"{""Ca"": 4.0, ""Fe"": 10.0, ""Ti"": 2.0, ""O"": 40.0, ""Si"": 8.0, ""Be"": 2.0, ""Al"": 2.0}",1751.26,#556B2F,triclinic,"{""system"": ""triclinic"", ""scale"": [0.7, 1.0, 1.3], ""optical"": {""transparent"": 0, ""refraction"": 0.0, ""birefringence"": 0.0}}"
Makatite,Na2Si4O8(OH)2·4H2O,"{""Na"": 2.0, ""Si"": 4.0, ""O"": 14.0, ""H"": 10.0}",392.42,#FFFFFF,monoclinic,"{""system"": ""monoclinic"", ""scale"": [0.7, 1.0, 1.3], ""optical"": {""transparent"": 1, ""refraction"": 1.5, ""birefringence"": 0.01}}"
Makinenite,NiSe,"{""Ni"": 1.0, ""Se"": 1.0}",137.65,#7FFF00,hexagonal,"{""system"": ""hexagonal"", ""scale"": [1.0, 1.0, 1.6], ""optical"": {""transparent"": 0, ""refraction"": 0.0, ""birefringence"": 0.0}}"
Makotoite,Ag12(Cu3Au)S8,"{""Ag"": 12.0, ""Cu"": 3.0, ""Au"": 1.0, ""S"": 8.0}",1938.54,#A9A9A9,hexagonal,"{""system"": ""hexagonal"", ""scale"": [1.0, 1.0, 1.6], ""optical"": {""transparent"": 0, ""refraction"": 0.0, ""birefringence"": 0.0}}"
Malachite,Cu2(CO3)(OH)2,"{""Cu"": 2.0, ""C"": 1.0, ""O"": 5.0, ""H"": 2.0}",221.13,#FFFFFF,monoclinic,"{""system"": ""monoclinic"", ""scale"": [0.7, 1.0, 1.3], ""optical"": {""transparent"": 1, ""refraction"": 1.5, ""birefringence"": 0.01}}"
Malanite,Cu1+(Ir3+Pt4+)S4,"{""Cu"": 1.0, ""Ir"": 1.0, ""Pt"": 1.0, ""S"": 4.0}",579.09,#A9A9A9,cubic,"{""system"": ""cubic"", ""scale"": [1.0, 1.0, 1.0], ""optical"": {""transparent"": 0, ""refraction"": 0.0, ""birefringence"": 0.0}}"
Maldonite,Au2Bi,"{""Au"": 2.0, ""Bi"": 1.0}",602.92,#FFD700,cubic,"{""system"": ""cubic"", ""scale"": [1.0, 1.0, 1.0], ""optical"": {""transparent"": 0, ""refraction"": 0.0, ""birefringence"": 0.0}}"
Maleevite,BaB2Si2O8,"{""Ba"": 1.0, ""B"": 2.0, ""Si"": 2.0, ""O"": 8.0}",343.13,#FFFFFF,orthorhombic,"{""system"": ""orthorhombic"", ""scale"": [0.8, 1.0, 1.2], ""optical"": {""transparent"": 1, ""refraction"": 1.5, ""birefringence"": 0.01}}"
Maletoyvayamite,Au3Se4Te6,"{""Au"": 3.0, ""Se"": 4.0, ""Te"": 6.0}",1672.35,#FFD700,triclinic,"{""system"": ""triclinic"", ""scale"": [0.7, 1.0, 1.3], ""optical"": {""transparent"": 0, ""refraction"": 0.0, ""birefringence"": 0.0}}"
Malhmoodite,Fe2+Zr(PO4)2·4H2O,"{""Fe"": 1.0, ""Zr"": 1.0, ""P"": 2.0, ""O"": 12.0, ""H"": 8.0}",409.07,#556B2F,triclinic,"{""system"": ""triclinic"", ""scale"": [0.7, 1.0, 1.3], ""optical"": {""transparent"": 0, ""refraction"": 0.0, ""birefringence"": 0.0}}"
Malinkoite,NaBSiO4,"{""Na"": 1.0, ""B"": 1.0, ""Si"": 1.0, ""O"": 4.0}",125.89,#FFFFFF,hexagonal,"{""system"": ""hexagonal"", ""scale"": [1.0, 1.0, 1.6], ""optical"": {""transparent"": 1, ""refraction"": 1.5, ""birefringence"": 0.01}}"
Malladrite,Na2SiF6,"{""Na"": 2.0, ""Si"": 1.0, ""F"": 6.0}",188.07,#FFFFFF,hexagonal,"{""system"": ""hexagonal"", ""scale"": [1.0, 1.0, 1.6], ""optical"": {""transparent"": 1, ""refraction"": 1.5, ""birefringence"": 0.01}}"
Mallestigite,Pb3Sb(SO4)(AsO4)(OH)6·3H2O,"{""Pb"": 3.0, ""Sb"": 1.0, ""S"": 1.0, ""O"": 17.0, ""As"": 1.0, ""H"": 12.0}",1134.44,#FFFFFF,hexagonal,"{""system"": ""hexagonal"", ""scale"": [1.0, 1.0, 1.6], ""optical"": {""transparent"": 1, ""refraction"": 1.5, ""birefringence"": 0.01}}"
Malyshevite,PdCuBiS3,"{""Pd"": 1.0, ""Cu"": 1.0, ""Bi"": 1.0, ""S"": 3.0}",475.13,#A9A9A9,orthorhombic,"{""system"": ""orthorhombic"", ""scale"": [0.8, 1.0, 1.2], ""optical"": {""transparent"": 0, ""refraction"": 0.0, ""birefringence"": 0.0}}"
Mammothite,Pb6Cu4AlSb5+O2(SO4)2Cl4(OH)16,"{""Pb"": 6.0, ""Cu"": 4.0, ""Al"": 1.0, ""Sb"": 1.0, ""O"": 26.0, ""S"": 2.0, ""Cl"": 4.0, ""H"": 16.0}",2284.19,#FFFFFF,monoclinic,"{""system"": ""monoclinic"", ""scale"": [0.7, 1.0, 1.3], ""optical"": {""transparent"": 1, ""refraction"": 1.5, ""birefringence"": 0.01}}"
Mampsisite,Ca4Al2(OH)12(CO3) · 5H2O,"{""Ca"": 4.0, ""Al"": 2.0, ""O"": 20.0, ""H"": 22.0, ""C"": 1.0}",568.47,#FFFFFF,triclinic,"{""system"": ""triclinic"", ""scale"": [0.7, 1.0, 1.3], ""optical"": {""transparent"": 1, ""refraction"": 1.5, ""birefringence"": 0.01}}"
Manandonite,Li2Al4(Si2AlB)O10(OH)8,"{""Li"": 2.0, ""Al"": 5.0, ""Si"": 2.0, ""B"": 1.0, ""O"": 18.0, ""H"": 8.0}",511.83,#FFFFFF,triclinic,"{""system"": ""triclinic"", ""scale"": [0.7, 1.0, 1.3], ""optical"": {""transparent"": 1, ""refraction"": 1.5, ""birefringence"": 0.01}}"
Mandarinoite,Fe3+2(Se4+O3)3·6H2O,"{""Fe"": 2.0, ""Se"": 3.0, ""O"": 15.0, ""H"": 12.0}",600.68,#556B2F,monoclinic,"{""system"": ""monoclinic"", ""scale"": [0.7, 1.0, 1.3], ""optical"": {""transparent"": 0, ""refraction"": 0.0, ""birefringence"": 0.0}}"
Mangazeite,Al2(SO4)(OH)4·3H2O,"{""Al"": 2.0, ""S"": 1.0, ""O"": 11.0, ""H"": 10.0}",272.1,#FFFFFF,triclinic,"{""system"": ""triclinic"", ""scale"": [0.7, 1.0, 1.3], ""optical"": {""transparent"": 1, ""refraction"": 1.5, ""birefringence"": 0.01}}"
Mannardite,Ba(Ti6V3+2)O16,"{""Ba"": 1.0, ""Ti"": 6.0, ""V"": 2.0, ""O"": 16.0}",782.43,#FFFFFF,tetragonal,"{""system"": ""tetragonal"", ""scale"": [1.0, 1.0, 1.4], ""optical"": {""transparent"": 1, ""refraction"": 1.5, ""birefringence"": 0.01}}"
Mansfieldite,Al(AsO4)·2H2O,"{""Al"": 1.0, ""As"": 1.0, ""O"": 6.0, ""H"": 4.0}",201.93,#FFFFFF,orthorhombic,"{""system"": ""orthorhombic"", ""scale"": [0.8, 1.0, 1.2], ""optical"": {""transparent"": 1, ""refraction"": 1.5, ""birefringence"": 0.01}}"
Mantienneite,(H2O)2Mg2(Al2Ti)(PO4)4(OH)2(H2O)10·4H2O,"{""H"": 34.0, ""O"": 34.0, ""Mg"": 2.0, ""Al"": 2.0, ""Ti"": 1.0, ""P"": 4.0}",852.6,#FFFFFF,orthorhombic,"{""system"": ""orthorhombic"", ""scale"": [0.8, 1.0, 1.2], ""optical"": {""transparent"": 1, ""refraction"": 1.5, ""birefringence"": 0.01}}"
Manuelarossiite,PbCaAlF7,"{""Pb"": 1.0, ""Ca"": 1.0, ""Al"": 1.0, ""F"": 7.0}",407.26,#FFFFFF,monoclinic,"{""system"": ""monoclinic"", ""scale"": [0.7, 1.0, 1.3], ""optical"": {""transparent"": 1, ""refraction"": 1.5, ""birefringence"": 0.01}}"
Maohokite,MgFe2O4,"{""Mg"": 1.0, ""Fe"": 2.0, ""O"": 4.0}",200.01,#8B4513,orthorhombic,"{""system"": ""orthorhombic"", ""scale"": [0.8, 1.0, 1.2], ""optical"": {""transparent"": 0, ""refraction"": 0.0, ""birefringence"": 0.0}}"
Marathonite,Pd25Ge9,"{""Pd"": 25.0, ""Ge"": 9.0}",3314.17,#FFFFFF,hexagonal,"{""system"": ""hexagonal"", ""scale"": [1.0, 1.0, 1.6], ""optical"": {""transparent"": 1, ""refraction"": 1.5, ""birefringence"": 0.01}}"
Marcasite,FeS2,"{""Fe"": 1.0, ""S"": 2.0}",119.97,#DAA520,orthorhombic,"{""system"": ""orthorhombic"", ""scale"": [0.8, 1.0, 1.2], ""optical"": {""transparent"": 0, ""refraction"": 0.0, ""birefringence"": 0.0}}"
Marchettiite,C5H7N5O3,"{""C"": 5.0, ""H"": 7.0, ""N"": 5.0, ""O"": 3.0}",185.16,#FFFFFF,triclinic,"{""system"": ""triclinic"", ""scale"": [0.7, 1.0, 1.3], ""optical"": {""transparent"": 1, ""refraction"": 1.5, ""birefringence"": 0.01}}"
Marcobaldiite,Pb12(Sb3As2Bi)Σ6S21,"{""Pb"": 12.0, ""Sb"": 18.0, ""As"": 12.0, ""Bi"": 6.0, ""S"": 21.0}",7504.26,#708090,triclinic,"{""system"": ""triclinic"", ""scale"": [0.7, 1.0, 1.3], ""optical"": {""transparent"": 0, ""refraction"": 0.0, ""birefringence"": 0.0}}"
Marecottite,Mg3O6(UO2)8(SO4)4(OH)2·28H2O,"{""Mg"": 3.0, ""O"": 68.0, ""U"": 8.0, ""S"": 4.0, ""H"": 58.0}",3251.87,#FFFFFF,triclinic,"{""system"": ""triclinic"", ""scale"": [0.7, 1.0, 1.3], ""optical"": {""transparent"": 1, ""refraction"": 1.5, ""birefringence"": 0.01}}"
Margaritasite,Cs2(UO2)2(VO4)2·H2O,"{""Cs"": 2.0, ""U"": 2.0, ""O"": 13.0, ""V"": 2.0, ""H"": 2.0}",1053.78,#FFFFFF,monoclinic,"{""system"": ""monoclinic"", ""scale"": [0.7, 1.0, 1.3], ""optical"": {""transparent"": 1, ""refraction"": 1.5, ""birefringence"": 0.01}}"
Margarite,CaAl2Si2Al2O10(OH)2,"{""Ca"": 1.0, ""Al"": 4.0, ""Si"": 2.0, ""O"": 12.0, ""H"": 2.0}",398.2,#FFFFFF,monoclinic,"{""system"": ""monoclinic"", ""scale"": [0.7, 1.0, 1.3], ""optical"": {""transparent"": 1, ""refraction"": 1.5, ""birefringence"": 0.01}}"
Margarosanite,Ca2PbSi3O9,"{""Ca"": 2.0, ""Pb"": 1.0, ""Si"": 3.0, ""O"": 9.0}",515.63,#FFFFFF,triclinic,"{""system"": ""triclinic"", ""scale"": [0.7, 1.0, 1.3], ""optical"": {""transparent"": 1, ""refraction"": 1.5, ""birefringence"": 0.01}}"
Mariakrite,[Ca4Al2(OH)12(H2O)4][Fe2S4],"{""Ca"": 4.0, ""Al"": 2.0, ""O"": 16.0, ""H"": 20.0, ""Fe"": 2.0, ""S"": 4.0}",730.38,#556B2F,triclinic,"{""system"": ""triclinic"", ""scale"": [0.7, 1.0, 1.3], ""optical"": {""transparent"": 0, ""refraction"": 0.0, ""birefringence"": 0.0}}"
Marialite,Na4Al3Si9O24Cl,"{""Na"": 4.0, ""Al"": 3.0, ""Si"": 9.0, ""O"": 24.0, ""Cl"": 1.0}",845.16,#FFFFFF,tetragonal,"{""system"": ""tetragonal"", ""scale"": [1.0, 1.0, 1.4], ""optical"": {""transparent"": 1, ""refraction"": 1.5, ""birefringence"": 0.01}}"
Maricite,NaFe2+(PO4),"{""Na"": 1.0, ""Fe"": 1.0, ""P"": 1.0, ""O"": 4.0}",173.81,#556B2F,orthorhombic,"{""system"": ""orthorhombic"", ""scale"": [0.8, 1.0, 1.2], ""optical"": {""transparent"": 0, ""refraction"": 0.0, ""birefringence"": 0.0}}"
Mariinskite,BeCr2O4,"{""Be"": 1.0, ""Cr"": 2.0, ""O"": 4.0}",177.01,#228B22,orthorhombic,"{""system"": ""orthorhombic"", ""scale"": [0.8, 1.0, 1.2], ""optical"": {""transparent"": 0, ""refraction"": 0.0, ""birefringence"": 0.0}}"
Marinaite,Cu2Fe3+O2(BO3),"{""Cu"": 2.0, ""Fe"": 1.0, ""O"": 5.0, ""B"": 1.0}",273.76,#556B2F,monoclinic,"{""system"": ""monoclinic"", ""scale"": [0.7, 1.0, 1.3], ""optical"": {""transparent"": 0, ""refraction"": 0.0, ""birefringence"": 0.0}}"
Marinellite,Na42Ca6Al36Si36O144(SO4)8Cl2·6H2O,"{""Na"": 42.0, ""Ca"": 6.0, ""Al"": 36.0, ""Si"": 36.0, ""O"": 182.0, ""S"": 8.0, ""Cl"": 2.0, ""H"": 12.0}",6440.06,#FFFFFF,hexagonal,"{""system"": ""hexagonal"", ""scale"": [1.0, 1.0, 1.6], ""optical"": {""transparent"": 1, ""refraction"": 1.5, ""birefringence"": 0.01}}"
Marioantofilliite,[Cu4Al2(OH)12](CO3)·3H2O,"{""Cu"": 4.0, ""Al"": 2.0, ""O"": 18.0, ""H"": 18.0, ""C"": 1.0}",626.31,#FFFFFF,monoclinic,"{""system"": ""monoclinic"", ""scale"": [0.7, 1.0, 1.3], ""optical"": {""transparent"": 1, ""refraction"": 1.5, ""birefringence"": 0.01}}"
Markascherite,Cu3(MoO4)(OH)4,"{""Cu"": 3.0, ""Mo"": 1.0, ""O"": 8.0, ""H"": 4.0}",418.63,#FFFFFF,monoclinic,"{""system"": ""monoclinic"", ""scale"": [0.7, 1.0, 1.3], ""optical"": {""transparent"": 1, ""refraction"": 1.5, ""birefringence"": 0.01}}"
Markcooperite,Pb2(UO2)TeO6,"{""Pb"": 2.0, ""U"": 1.0, ""O"": 8.0, ""Te"": 1.0}",908.03,#FFFFFF,monoclinic,"{""system"": ""monoclinic"", ""scale"": [0.7, 1.0, 1.3], ""optical"": {""transparent"": 1, ""refraction"": 1.5, ""birefringence"": 0.01}}"
Markeyite,Ca9(UO2)4(CO3)13·28H2O,"{""Ca"": 9.0, ""U"": 4.0, ""O"": 75.0, ""C"": 13.0, ""H"": 56.0}",2725.42,#FFFFFF,orthorhombic,"{""system"": ""orthorhombic"", ""scale"": [0.8, 1.0, 1.2], ""optical"": {""transparent"": 1, ""refraction"": 1.5, ""birefringence"": 0.01}}"
Markhininite,TlBi(SO4)2,"{""Tl"": 1.0, ""Bi"": 1.0, ""S"": 2.0, ""O"": 8.0}",605.48,#FFFFFF,triclinic,"{""system"": ""triclinic"", ""scale"": [0.7, 1.0, 1.3], ""optical"": {""transparent"": 1, ""refraction"": 1.5, ""birefringence"": 0.01}}"
Marklite,Cu5(CO3)2(OH)6·6H2O,"{""Cu"": 5.0, ""C"": 2.0, ""O"": 18.0, ""H"": 18.0}",647.91,#FFFFFF,monoclinic,"{""system"": ""monoclinic"", ""scale"": [0.7, 1.0, 1.3], ""optical"": {""transparent"": 1, ""refraction"": 1.5, ""birefringence"": 0.01}}"
Markwelchite,TlPbSbS3,"{""Tl"": 1.0, ""Pb"": 1.0, ""Sb"": 1.0, ""S"": 3.0}",629.52,#708090,monoclinic,"{""system"": ""monoclinic"", ""scale"": [0.7, 1.0, 1.3], ""optical"": {""transparent"": 0, ""refraction"": 0.0, ""birefringence"": 0.0}}"
Marrite,AgPbAsS3,"{""Ag"": 1.0, ""Pb"": 1.0, ""As"": 1.0, ""S"": 3.0}",486.17,#708090,monoclinic,"{""system"": ""monoclinic"", ""scale"": [0.7, 1.0, 1.3], ""optical"": {""transparent"": 0, ""refraction"": 0.0, ""birefringence"": 0.0}}"
Marrucciite,Hg3Pb16Sb18S46,"{""Hg"": 3.0, ""Pb"": 16.0, ""Sb"": 18.0, ""S"": 46.0}",7583.41,#708090,monoclinic,"{""system"": ""monoclinic"", ""scale"": [0.7, 1.0, 1.3], ""optical"": {""transparent"": 0, ""refraction"": 0.0, ""birefringence"": 0.0}}"
Marsaalamite-(Y),Y(MoO4)(OH),"{""Y"": 1.0, ""Mo"": 1.0, ""O"": 5.0, ""H"": 1.0}",265.87,#FFFFFF,monoclinic,"{""system"": ""monoclinic"", ""scale"": [0.7, 1.0, 1.3], ""optical"": {""transparent"": 1, ""refraction"": 1.5, ""birefringence"": 0.01}}"
Marshite,CuI,"{""Cu"": 1.0, ""I"": 1.0}",190.45,#00BFFF,cubic,"{""system"": ""cubic"", ""scale"": [1.0, 1.0, 1.0], ""optical"": {""transparent"": 0, ""refraction"": 0.0, ""birefringence"": 0.0}}"
Marthozite,Cu2+(UO2)3(Se4+O3)2O2·8H2O,"{""Cu"": 1.0, ""U"": 3.0, ""O"": 22.0, ""Se"": 2.0, ""H"": 16.0}",1303.69,#FFFFFF,orthorhombic,"{""system"": ""orthorhombic"", ""scale"": [0.8, 1.0, 1.2], ""optical"": {""transparent"": 1, ""refraction"": 1.5, ""birefringence"": 0.01}}"
Martinandresite,Ba2(Al4Si12O32)·10H2O,"{""Ba"": 2.0, ""Al"": 4.0, ""Si"": 12.0, ""O"": 42.0, ""H"": 20.0}",1411.82,#FFFFFF,orthorhombic,"{""system"": ""orthorhombic"", ""scale"": [0.8, 1.0, 1.2], ""optical"": {""transparent"": 1, ""refraction"": 1.5, ""birefringence"": 0.01}}"
Marumoite,Pb32As40S92,"{""Pb"": 32.0, ""As"": 40.0, ""S"": 92.0}",12576.72,#708090,monoclinic,"{""system"": ""monoclinic"", ""scale"": [0.7, 1.0, 1.3], ""optical"": {""transparent"": 0, ""refraction"": 0.0, ""birefringence"": 0.0}}"
Maruyamaite,K(MgAl2)(Al5Mg)(BO3)3(Si6O18)(OH)3O,"{""K"": 1.0, ""Mg"": 2.0, ""Al"": 7.0, ""B"": 3.0, ""O"": 31.0, ""Si"": 6.0, ""H"": 3.0}",976.57,#FFFFFF,hexagonal,"{""system"": ""hexagonal"", ""scale"": [1.0, 1.0, 1.6], ""optical"": {""transparent"": 1, ""refraction"": 1.5, ""birefringence"": 0.01}}"
Masaitisite,KCu5O2(SeO3)2Cl3,"{""K"": 1.0, ""Cu"": 5.0, ""O"": 8.0, ""Se"": 2.0, ""Cl"": 3.0}",749.12,#FFFFFF,orthorhombic,"{""system"": ""orthorhombic"", ""scale"": [0.8, 1.0, 1.2], ""optical"": {""transparent"": 1, ""refraction"": 1.5, ""birefringence"": 0.01}}"
Mascagnite,(NH4)2(SO4),"{""N"": 2.0, ""H"": 8.0, ""S"": 1.0, ""O"": 4.0}",132.14,#FFFFFF,orthorhombic,"{""system"": ""orthorhombic"", ""scale"": [0.8, 1.0, 1.2], ""optical"": {""transparent"": 1, ""refraction"": 1.5, ""birefringence"": 0.01}}"
Maslovite,PtBiTe,"{""Pt"": 1.0, ""Bi"": 1.0, ""Te"": 1.0}",531.66,#D2B48C,cubic,"{""system"": ""cubic"", ""scale"": [1.0, 1.0, 1.0], ""optical"": {""transparent"": 0, ""refraction"": 0.0, ""birefringence"": 0.0}}"
Massicot,PbO,"{""Pb"": 1.0, ""O"": 1.0}",223.2,#FFFFFF,orthorhombic,"{""system"": ""orthorhombic"", ""scale"": [0.8, 1.0, 1.2], ""optical"": {""transparent"": 1, ""refraction"": 1.5, ""birefringence"": 0.01}}"
Masuyite,Pb(UO2)3O3(OH)2·3H2O,"{""Pb"": 1.0, ""U"": 3.0, ""O"": 14.0, ""H"": 8.0}",1153.35,#FFFFFF,monoclinic,"{""system"": ""monoclinic"", ""scale"": [0.7, 1.0, 1.3], ""optical"": {""transparent"": 1, ""refraction"": 1.5, ""birefringence"": 0.01}}"
Mathesiusite,K5(UO2)4(SO4)4(VO5)(H2O)4,"{""K"": 5.0, ""U"": 4.0, ""O"": 33.0, ""S"": 4.0, ""V"": 1.0, ""H"": 8.0}",1862.86,#FFFFFF,tetragonal,"{""system"": ""tetragonal"", ""scale"": [1.0, 1.0, 1.4], ""optical"": {""transparent"": 1, ""refraction"": 1.5, ""birefringence"": 0.01}}"
Matildite,AgBiS2,"{""Ag"": 1.0, ""Bi"": 1.0, ""S"": 2.0}",380.97,#A9A9A9,hexagonal,"{""system"": ""hexagonal"", ""scale"": [1.0, 1.0, 1.6], ""optical"": {""transparent"": 0, ""refraction"": 0.0, ""birefringence"": 0.0}}"
Matioliite,NaMgAl5(PO4)4(OH)6·2H2O,"{""Na"": 1.0, ""Mg"": 1.0, ""Al"": 5.0, ""P"": 4.0, ""O"": 24.0, ""H"": 10.0}",700.16,#FFFFFF,,"{""system"": """", ""scale"": [1.0, 1.0, 1.0], ""optical"": {""transparent"": 1, ""refraction"": 1.5, ""birefringence"": 0.01}}"
Matlockite,PbClF,"{""Pb"": 1.0, ""Cl"": 1.0, ""F"": 1.0}",261.65,#FFFFFF,tetragonal,"{""system"": ""tetragonal"", ""scale"": [1.0, 1.0, 1.4], ""optical"": {""transparent"": 1, ""refraction"": 1.5, ""birefringence"": 0.01}}"
Matsubaraite,Sr4Ti5O8(Si2O7)2,"{""Sr"": 4.0, ""Ti"": 5.0, ""O"": 22.0, ""Si"": 4.0}",1054.19,#FFFFFF,monoclinic,"{""system"": ""monoclinic"", ""scale"": [0.7, 1.0, 1.3], ""optical"": {""transparent"": 1, ""refraction"": 1.5, ""birefringence"": 0.01}}"
Mattagamite,CoTe2,"{""Co"": 1.0, ""Te"": 2.0}",314.13,#4169E1,orthorhombic,"{""system"": ""orthorhombic"", ""scale"": [0.8, 1.0, 1.2], ""optical"": {""transparent"": 0, ""refraction"": 0.0, ""birefringence"": 0.0}}"
Matteuccite,NaH(SO4)·H2O,"{""Na"": 1.0, ""H"": 3.0, ""S"": 1.0, ""O"": 5.0}",138.07,#FFFFFF,monoclinic,"{""system"": ""monoclinic"", ""scale"": [0.7, 1.0, 1.3], ""optical"": {""transparent"": 1, ""refraction"": 1.5, ""birefringence"": 0.01}}"
Matthiasweilite,PbTe4+O3,"{""Pb"": 1.0, ""Te"": 1.0, ""O"": 3.0}",382.8,#FFFFFF,triclinic,"{""system"": ""triclinic"", ""scale"": [0.7, 1.0, 1.3], ""optical"": {""transparent"": 1, ""refraction"": 1.5, ""birefringence"": 0.01}}"
Matulaite,Fe3+Al7(PO4)4(PO3OH)2(OH)8(H2O)8·8H2O,"{""Fe"": 1.0, ""Al"": 7.0, ""P"": 6.0, ""O"": 48.0, ""H"": 42.0}",1240.87,#556B2F,monoclinic,"{""system"": ""monoclinic"", ""scale"": [0.7, 1.0, 1.3], ""optical"": {""transparent"": 0, ""refraction"": 0.0, ""birefringence"": 0.0}}"
Maucherite,Ni11As8,"{""Ni"": 11.0, ""As"": 8.0}",1244.95,#7FFF00,monoclinic,"{""system"": ""monoclinic"", ""scale"": [0.7, 1.0, 1.3], ""optical"": {""transparent"": 0, ""refraction"": 0.0, ""birefringence"": 0.0}}"