name,formula,elements,density,color,crystal,pm_ids,gacha_weight
Tetrarooseveltite,Bi(AsO4),"{""Bi"": 1.0, ""As"": 1.0, ""O"": 4.0}",347.898,#808080,tetragonal,{47},1998.0
Tetrataenite,FeNi,"{""Fe"": 1.0, ""Ni"": 1.0}",114.538,#7FFF00,monoclinic,"{4,5,6}",346.0
Thalenite-(Y),Y3Si3O10F,"{""Y"": 3.0, ""Si"": 3.0, ""O"": 10.0, ""F"": 1.0}",529.961,#FFFFFF,monoclinic,{34},564.0
Thalhammerite,Pd9Ag2Bi2S4,"{""Pd"": 9.0, ""Ag"": 2.0, ""Bi"": 2.0, ""S"": 4.0}",1719.72,#A9A9A9,tetragonal,{33},797.0
Thalliumpharmacosiderite,TlFe4[(AsO4)3(OH)4]·4H2O,"{""Tl"": 1.0, ""Fe"": 4.0, ""As"": 3.0, ""O"": 20.0, ""H"": 12.0}",984.602,#556B2F,cubic,{47},1998.0
Thaumasite,Ca3Si(OH)6(CO3)(SO4)·12H2O,"{""Ca"": 3.0, ""Si"": 1.0, ""O"": 25.0, ""H"": 30.0, ""C"": 1.0, ""S"": 1.0}",622.605,#FFFFFF,hexagonal,{47},1998.0
Thebaite-(NH4),(NH4)3Al(C2O4)(PO3OH)2(H2O),"{""N"": 3.0, ""H"": 16.0, ""Al"": 1.0, ""C"": 2.0, ""O"": 13.0, ""P"": 2.0}",379.088,#FFFFFF,monoclinic,"{52,55}",336.0
Thenardite,Na2(SO4),"{""Na"": 2.0, ""S"": 1.0, ""O"": 4.0}",142.036,#FFFF00,orthorhombic,"{25,45,50,54}",1141.0
Theoparacelsite,Cu3(OH)2As2O7,"{""Cu"": 3.0, ""O"": 9.0, ""H"": 2.0, ""As"": 2.0}",486.489,#FFFFFF,orthorhombic,{47},1998.0
Theophrastite,Ni(OH)2,"{""Ni"": 1.0, ""O"": 2.0, ""H"": 2.0}",92.707,#7FFF00,hexagonal,"{7,47}",2121.0
Therasiaite,(NH4)3KNa2Fe2+Fe3+(SO4)3Cl5,"{""N"": 3.0, ""H"": 12.0, ""K"": 1.0, ""Na"": 2.0, ""Fe"": 2.0, ""S"": 3.0, ""O"": 12.0, ""Cl"": 5.0}",716.303,#556B2F,monoclinic,{45},424.0
Theresemagnanite,NaCo4(SO4)(OH)6Cl·6H2O,"{""Na"": 1.0, ""Co"": 4.0, ""S"": 1.0, ""O"": 16.0, ""H"": 18.0, ""Cl"": 1.0}",600.36,#FFFFFF,hexagonal,{47},1998.0
Thermaerogenite,CuAl2O4,"{""Cu"": 1.0, ""Al"": 2.0, ""O"": 4.0}",181.506,#00BFFF,cubic,{45},424.0
Thermessaite,K2AlF3(SO4),"{""K"": 2.0, ""Al"": 1.0, ""F"": 3.0, ""S"": 1.0, ""O"": 4.0}",258.228,#FFFFFF,orthorhombic,"{45,50}",697.0
Thermessaite-(NH4),(NH4)2AlF3(SO4),"{""N"": 2.0, ""H"": 8.0, ""Al"": 1.0, ""F"": 3.0, ""S"": 1.0, ""O"": 4.0}",216.11,#FFFFFF,orthorhombic,"{45,54}",658.0
Thermonatrite,Na2(CO3)·H2O,"{""Na"": 2.0, ""C"": 1.0, ""O"": 4.0, ""H"": 2.0}",124.003,#FFFFFF,orthorhombic,"{25,45,47}",2632.0
Theuerdankite,Ag3(AsO4),"{""Ag"": 3.0, ""As"": 1.0, ""O"": 4.0}",462.528,#C0C0C0,cubic,{},1.0
Thionasilite,Na2Si2S2O3,"{""Na"": 2.0, ""Si"": 2.0, ""S"": 2.0, ""O"": 3.0}",214.267,#FFFFFF,orthorhombic,{},1.0
Thomasclarkite-(Y),NaY(HCO3)(OH)3·4H2O,"{""Na"": 1.0, ""Y"": 1.0, ""H"": 12.0, ""C"": 1.0, ""O"": 10.0}",295.993,#FFFFFF,monoclinic,{35},726.0
Thometzekite,PbCu2+2(AsO4)2·2H2O,"{""Pb"": 1.0, ""Cu"": 2.0, ""As"": 2.0, ""O"": 10.0, ""H"": 4.0}",648.158,#FFFFFF,monoclinic,{47},1998.0
Thomsenolite,NaCaAlF6·H2O,"{""Na"": 1.0, ""Ca"": 1.0, ""Al"": 1.0, ""F"": 6.0, ""H"": 2.0, ""O"": 1.0}",222.053,#FFFFFF,monoclinic,"{22,56}",390.0
Thomsonite-Ca,NaCa2(Al5Si5)O20·6H2O,"{""Na"": 1.0, ""Ca"": 2.0, ""Al"": 5.0, ""Si"": 5.0, ""O"": 26.0, ""H"": 12.0}",806.551,#FFFFFF,orthorhombic,"{14,24,38,40}",562.0
Thomsonite-Sr,NaSr2(Al5Si5)O20·6-7H2O,"{""Na"": 1.0, ""Sr"": 2.0, ""Al"": 5.0, ""Si"": 5.0, ""O"": 27.0, ""H"": 14.0}",919.65,#FFFFFF,orthorhombic,{22},247.0
Thorasphite,Th2H(AsO4)2(PO4)·6H2O,"{""Th"": 2.0, ""H"": 13.0, ""As"": 2.0, ""O"": 18.0, ""P"": 1.0}",945.984,#FFFFFF,orthorhombic,{47},1998.0
Thorbastnasite,ThCa(CO3)2F2·3H2O,"{""Th"": 1.0, ""Ca"": 1.0, ""C"": 2.0, ""O"": 9.0, ""F"": 2.0, ""H"": 6.0}",484.175,#FFFFFF,hexagonal,{35},726.0
Thorianite,ThO2,"{""Th"": 1.0, ""O"": 2.0}",264.038,#FFFFFF,cubic,"{26,34,36}",1105.0
Thorikosite,Pb3O3Sb3+(OH)Cl2,"{""Pb"": 3.0, ""O"": 4.0, ""Sb"": 1.0, ""H"": 1.0, ""Cl"": 2.0}",879.264,#FFFFFF,tetragonal,"{47,56}",2141.0
Thorite,Th(SiO4),"{""Th"": 1.0, ""Si"": 1.0, ""O"": 4.0}",324.121,#FFFFFF,tetragonal,"{26,34}",814.0
Thornasite,Na12Th3(Si8O19)4·18H2O,"{""Na"": 12.0, ""Th"": 3.0, ""Si"": 32.0, ""O"": 94.0, ""H"": 36.0}",3410.914,#FFFFFF,hexagonal,{35},726.0
Thorneite,Pb6(Te2O10)(CO3)Cl2(H2O),"{""Pb"": 6.0, ""Te"": 2.0, ""O"": 14.0, ""C"": 1.0, ""Cl"": 2.0, ""H"": 2.0}",1807.313,#FFFFFF,monoclinic,{47},1998.0
Thortveitite,Sc2Si2O7,"{""Sc"": 2.0, ""Si"": 2.0, ""O"": 7.0}",258.075,#FFFFFF,monoclinic,"{3,34}",612.0
Threadgoldite,Al(UO2)2(PO4)2(OH)·8H2O,"{""Al"": 1.0, ""U"": 2.0, ""O"": 21.0, ""P"": 2.0, ""H"": 17.0}",918.105,#FFFFFF,monoclinic,"{34,47}",2562.0
Thunderbayite,TlAg3Au3Sb7S6,"{""Tl"": 1.0, ""Ag"": 3.0, ""Au"": 3.0, ""Sb"": 7.0, ""S"": 6.0}",2163.58,#A9A9A9,triclinic,{33},797.0
Tianhongqiite,CrTiO3(OH),"{""Cr"": 1.0, ""Ti"": 1.0, ""O"": 4.0, ""H"": 1.0}",164.867,#FFFFFF,monoclinic,{38},108.0
Tianhuixinite,(MoO3)3·H2O,"{""Mo"": 3.0, ""O"": 10.0, ""H"": 2.0}",449.856,#FFFFFF,hexagonal,{},1.0
Tiemannite,HgSe,"{""Hg"": 1.0, ""Se"": 1.0}",279.561,#FFFFFF,cubic,{33},797.0
Tiettaite,K4Na12Fe3+2Si16O41(OH)4·2H2O,"{""K"": 4.0, ""Na"": 12.0, ""Fe"": 2.0, ""Si"": 16.0, ""O"": 47.0, ""H"": 8.0}",1753.339,#556B2F,orthorhombic,{35},726.0
Tikhonenkovite,SrAlF4(OH)·H2O,"{""Sr"": 1.0, ""Al"": 1.0, ""F"": 4.0, ""O"": 2.0, ""H"": 3.0}",225.616,#FFFFFF,monoclinic,{47},1998.0
Tilasite,CaMg(AsO4)F,"{""Ca"": 1.0, ""Mg"": 1.0, ""As"": 1.0, ""O"": 4.0, ""F"": 1.0}",222.299,#FFFFFF,monoclinic,"{20,32,45}",881.0
Tilkerodeite,Pd2HgSe3,"{""Pd"": 2.0, ""Hg"": 1.0, ""Se"": 3.0}",650.343,#FFFFFF,hexagonal,{33},797.0
Tilleyite,Ca5Si2O7(CO3)2,"{""Ca"": 5.0, ""Si"": 2.0, ""O"": 13.0, ""C"": 2.0}",488.569,#FFFFFF,monoclinic,"{31,40}",675.0
Tillmannsite,HgAg3(VO4),"{""Hg"": 1.0, ""Ag"": 3.0, ""V"": 1.0, ""O"": 4.0}",639.138,#FFFFFF,tetragonal,{47},1998.0
Timroseite,Pb2Cu5(TeO6)2(OH)2,"{""Pb"": 2.0, ""Cu"": 5.0, ""Te"": 2.0, ""O"": 14.0, ""H"": 2.0}",1213.332,#FFFFFF,orthorhombic,{47},1998.0
Tinaksite,K2NaCa2TiSi7O18(OH)O,"{""K"": 2.0, ""Na"": 1.0, ""Ca"": 2.0, ""Ti"": 1.0, ""Si"": 7.0, ""O"": 20.0, ""H"": 1.0}",746.792,#FFFFFF,triclinic,{31},356.0
Tincalconite,Na2B4O5(OH)4·3H2O,"{""Na"": 2.0, ""B"": 4.0, ""O"": 12.0, ""H"": 10.0}",291.288,#FFFFFF,hexagonal,{25},210.0
Tinnunculite,C5H4N4O3·2H2O,"{""C"": 5.0, ""H"": 8.0, ""N"": 4.0, ""O"": 5.0}",204.142,#FFFFFF,monoclinic,"{50,52,54}",579.0
Tinsleyite,KAl2(PO4)2(OH)·2H2O,"{""K"": 1.0, ""Al"": 2.0, ""P"": 2.0, ""O"": 11.0, ""H"": 5.0}",336.039,#FFFFFF,monoclinic,"{21,31,52,53}",624.0
Tinticite,Fe3+3(PO4)2(OH)3·3H2O,"{""Fe"": 3.0, ""P"": 2.0, ""O"": 14.0, ""H"": 9.0}",462.541,#556B2F,triclinic,"{47,52}",2070.0
Tintinaite,Pb10Cu2Sb16S35,"{""Pb"": 10.0, ""Cu"": 2.0, ""Sb"": 16.0, ""S"": 35.0}",5269.352,#708090,orthorhombic,"{23,33}",1195.0
Tischendorfite,Pd8Hg3Se9,"{""Pd"": 8.0, ""Hg"": 3.0, ""Se"": 9.0}",2163.869,#FFFFFF,orthorhombic,{33},797.0
Tistarite,Ti2O3,"{""Ti"": 2.0, ""O"": 3.0}",143.731,#FFFFFF,hexagonal,"{3,39}",118.0
Titanite,CaTi(SiO4)O,"{""Ca"": 1.0, ""Ti"": 1.0, ""Si"": 1.0, ""O"": 5.0}",196.025,#FFFFFF,monoclinic,"{8,23,24,26,31,34,35,36,38,40,50,54}",3686.0
Titanium,Ti,"{""Ti"": 1.0}",47.867,#FFFFFF,cubic,"{7,11,36}",450.0
Tivanite,TiV3+O3(OH),"{""Ti"": 1.0, ""V"": 1.0, ""O"": 4.0, ""H"": 1.0}",163.813,#FFFFFF,monoclinic,{47},1998.0
Tobelite,(NH4)Al2(Si3Al)O10(OH)2,"{""N"": 1.0, ""H"": 6.0, ""Al"": 3.0, ""Si"": 3.0, ""O"": 12.0}",377.244,#FFFFFF,monoclinic,"{40,46}",371.0
Tobermorite,Ca4Si6O17(H2O)2·(Ca·3H2O),"{""Ca"": 7.0, ""Si"": 6.0, ""O"": 28.0, ""H"": 22.0}",919.204,#FFFFFF,monoclinic,{31},356.0
Tokkoite,K2Ca4Si7O18(OH)F,"{""K"": 2.0, ""Ca"": 4.0, ""Si"": 7.0, ""O"": 19.0, ""H"": 1.0, ""F"": 1.0}",759.09,#FFFFFF,triclinic,{35},726.0
Tolbachite,CuCl2,"{""Cu"": 1.0, ""Cl"": 2.0}",134.446,#00BFFF,monoclinic,"{45,47}",2422.0
Toledoite,TiFeSi,"{""Ti"": 1.0, ""Fe"": 1.0, ""Si"": 1.0}",131.797,#8B4513,orthorhombic,{7},123.0
Tolovkite,IrSbS,"{""Ir"": 1.0, ""Sb"": 1.0, ""S"": 1.0}",346.04,#A9A9A9,orthorhombic,"{26,37}",385.0
Tolstykhite,Au3S4Te6,"{""Au"": 3.0, ""S"": 4.0, ""Te"": 6.0}",1484.75,#A9A9A9,triclinic,{33},797.0
Tomamaeite,Cu3Pt,"{""Cu"": 3.0, ""Pt"": 1.0}",385.718,#00BFFF,cubic,{7},123.0
Tomcampbellite,[KCl][Fe2+14(OH)6(PO4)6(PO3OH)2],"{""K"": 1.0, ""Cl"": 1.0, ""Fe"": 14.0, ""O"": 38.0, ""H"": 8.0, ""P"": 8.0}",1720.196,#556B2F,monoclinic,{},1.0
Tomichite,V3+4Ti4+3As3+O13(OH),"{""V"": 4.0, ""Ti"": 3.0, ""As"": 1.0, ""O"": 14.0, ""H"": 1.0}",647.285,#FFFFFF,monoclinic,"{40,47}",2317.0
Tomsquarryite,NaMgAl3(PO4)2(OH)6·8H2O,"{""Na"": 1.0, ""Mg"": 1.0, ""Al"": 3.0, ""P"": 2.0, ""O"": 22.0, ""H"": 22.0}",564.343,#FFFFFF,unknown,{47},1998.0
Tondiite,Cu3MgCl2(OH)6,"{""Cu"": 3.0, ""Mg"": 1.0, ""Cl"": 2.0, ""O"": 6.0, ""H"": 6.0}",387.885,#FFFFFF,hexagonal,"{45,47}",2422.0
Tongbaite,Cr3C2,"{""Cr"": 3.0, ""C"": 2.0}",180.01,#228B22,orthorhombic,{7},123.0
Tooeleite,Fe3+6(AsO3)4(SO4)(OH)4·4H2O,"{""Fe"": 6.0, ""As"": 4.0, ""O"": 24.0, ""S"": 1.0, ""H"": 12.0}",1062.89,#556B2F,monoclinic,"{47,56}",2141.0
Topaz,Al2SiO4F2,"{""Al"": 2.0, ""Si"": 1.0, ""O"": 4.0, ""F"": 2.0}",184.041,#FFFFFF,orthorhombic,"{19,20,23,26,34,46,48}",1523.0
Topsoeite,FeF3(H2O)3,"{""Fe"": 1.0, ""F"": 3.0, ""H"": 6.0, ""O"": 3.0}",166.884,#556B2F,tetragonal,{45},424.0
Torbernite,Cu(UO2)2(PO4)2·12H2O,"{""Cu"": 1.0, ""U"": 2.0, ""O"": 24.0, ""P"": 2.0, ""H"": 24.0}",1009.722,#FFFFFF,tetragonal,{47},1998.0
Tornebohmite-(Ce),Ce2Al(SiO4)2(OH),"{""Ce"": 2.0, ""Al"": 1.0, ""Si"": 2.0, ""O"": 9.0, ""H"": 1.0}",508.391,#FFFFFF,monoclinic,{31},356.0
Tornebohmite-(La),La2Al(SiO4)2(OH),"{""La"": 2.0, ""Al"": 1.0, ""Si"": 2.0, ""O"": 9.0, ""H"": 1.0}",505.971,#FFFFFF,monoclinic,{31},356.0
Tornroosite,Pd11As2Te2,"{""Pd"": 11.0, ""As"": 2.0, ""Te"": 2.0}",1575.664,#808080,cubic,"{33,37}",932.0
Torryweiserite,Rh5Ni10S16,"{""Rh"": 5.0, ""Ni"": 10.0, ""S"": 16.0}",1614.44,#A9A9A9,hexagonal,{33},797.0
Touretite,LiAl4Be4(B11Be)O28,"{""Li"": 1.0, ""Al"": 4.0, ""Be"": 5.0, ""B"": 11.0, ""O"": 28.0}",726.811,#FFFFFF,cubic,{},1.0
Townendite,Na8ZrSi6O18,"{""Na"": 8.0, ""Zr"": 1.0, ""Si"": 6.0, ""O"": 18.0}",731.636,#FFFFFF,hexagonal,{35},726.0
Trabzonite,Ca4[Si3O9(OH)](OH),"{""Ca"": 4.0, ""Si"": 3.0, ""O"": 11.0, ""H"": 2.0}",422.572,#FFFFFF,orthorhombic,{31},356.0
Tranquillityite,Fe2+8Ti3Zr2Si3O24,"{""Fe"": 8.0, ""Ti"": 3.0, ""Zr"": 2.0, ""Si"": 3.0, ""O"": 24.0}",1241.04,#556B2F,hexagonal,"{5,8}",187.0
Transjordanite,Ni2P,"{""Ni"": 2.0, ""P"": 1.0}",148.36,#7FFF00,hexagonal,"{5,51}",222.0
Trattnerite,Fe3+2(Mg3Si12)O30,"{""Fe"": 2.0, ""Mg"": 3.0, ""Si"": 12.0, ""O"": 30.0}",1001.595,#556B2F,hexagonal,"{31,35}",1082.0
Treasurite,Ag7Pb6Bi15S30,"{""Ag"": 7.0, ""Pb"": 6.0, ""Bi"": 15.0, ""S"": 30.0}",6094.79,#708090,monoclinic,{33},797.0
Trebeurdenite,Fe2+2Fe3+4O2(OH)10(CO3)·3H2O,"{""Fe"": 6.0, ""O"": 18.0, ""H"": 16.0, ""C"": 1.0}",651.191,#556B2F,unknown,{47},1998.0
Trebiskyite,Na3Mg2[TiV9O28]·22H2O,"{""Na"": 3.0, ""Mg"": 2.0, ""Ti"": 1.0, ""V"": 9.0, ""O"": 50.0, ""H"": 44.0}",1468.227,#FFFFFF,monoclinic,{47},1998.0
Trechmannite,AgAsS2,"{""Ag"": 1.0, ""As"": 1.0, ""S"": 2.0}",246.912,#FFD700,hexagonal,{33},797.0
Tredouxite,NiSb2O6,"{""Ni"": 1.0, ""Sb"": 2.0, ""O"": 6.0}",398.207,#7FFF00,tetragonal,{47},1998.0
Trembathite,Mg3B7O13Cl,"{""Mg"": 3.0, ""B"": 7.0, ""O"": 13.0, ""Cl"": 1.0}",392.022,#FFFFFF,hexagonal,{25},210.0
Trevorite,NiFe3+2O4,"{""Ni"": 1.0, ""Fe"": 2.0, ""O"": 4.0}",234.379,#7FFF00,cubic,"{7,36,40}",733.0
Triangulite,Al3(UO2)4(PO4)4(OH)5·5H2O,"{""Al"": 3.0, ""U"": 4.0, ""O"": 34.0, ""P"": 4.0, ""H"": 15.0}",1716.048,#FFFFFF,triclinic,{47},1998.0
Triazolite,NaCu2(N3C2H2)2(NH3)2Cl3·4H2O,"{""Na"": 1.0, ""Cu"": 2.0, ""N"": 8.0, ""C"": 4.0, ""H"": 18.0, ""Cl"": 3.0, ""O"": 4.0}",498.672,#FFFFFF,orthorhombic,{52},72.0
Tridymite,SiO2,"{""Si"": 1.0, ""O"": 2.0}",60.083,#FFFFFF,triclinic,"{4,5,9,10,20,26,50,54}",1177.0
Trigodomeykite,Cu3As,"{""Cu"": 3.0, ""As"": 1.0}",265.56,#00BFFF,hexagonal,{33},797.0
Trikalsilite,K2Na(AlSiO4)3,"{""K"": 2.0, ""Na"": 1.0, ""Al"": 3.0, ""Si"": 3.0, ""O"": 12.0}",458.375,#FFFFFF,hexagonal,{35},726.0
Trimounsite-(Y),Y2Ti2SiO9,"{""Y"": 2.0, ""Ti"": 2.0, ""Si"": 1.0, ""O"": 9.0}",445.622,#FFFFFF,monoclinic,{34},564.0
Trinepheline,NaAlSiO4,"{""Na"": 1.0, ""Al"": 1.0, ""Si"": 1.0, ""O"": 4.0}",142.053,#FFFFFF,monoclinic,{39},70.0
Triphylite,LiFe2+(PO4),"{""Li"": 1.0, ""Fe"": 1.0, ""P"": 1.0, ""O"": 4.0}",157.755,#556B2F,orthorhombic,{34},564.0
Trippkeite,Cu2+As3+2O4,"{""Cu"": 1.0, ""As"": 2.0, ""O"": 4.0}",277.386,#00BFFF,tetragonal,{47},1998.0
Tripuhyite,Fe3+Sb5+O4,"{""Fe"": 1.0, ""Sb"": 1.0, ""O"": 4.0}",241.601,#8B4513,tetragonal,"{45,47}",2422.0
Trogerite,(H3O)(UO2)(AsO4)·3H2O,"{""H"": 9.0, ""O"": 10.0, ""U"": 1.0, ""As"": 1.0}",482.014,#FFFFFF,unknown,{47},1998.0
Trogtalite,CoSe2,"{""Co"": 1.0, ""Se"": 2.0}",216.875,#4169E1,cubic,{33},797.0
Troilite,FeS,"{""Fe"": 1.0, ""S"": 1.0}",87.905,#DAA520,hexagonal,"{1,4,5,6,7,15,36,50,54}",1321.0
Trolleite,Al4(PO4)3(OH)3,"{""Al"": 4.0, ""P"": 3.0, ""O"": 15.0, ""H"": 3.0}",443.859,#FFFFFF,monoclinic,"{34,40}",883.0
Trona,Na3(HCO3)(CO3)·2H2O,"{""Na"": 3.0, ""H"": 5.0, ""C"": 2.0, ""O"": 8.0}",226.024,#FFFFFF,monoclinic,"{25,45}",634.0
Truscottite,Ca14Si24O58(OH)8·2H2O,"{""Ca"": 14.0, ""Si"": 24.0, ""O"": 68.0, ""H"": 12.0}",2335.16,#FFFFFF,hexagonal,{23},398.0
Trustedtite,Ni2+Ni3+2Se4,"{""Ni"": 3.0, ""Se"": 4.0}",491.963,#7FFF00,cubic,{33},797.0
Tsangpoite,Ca5(PO4)2(SiO4),"{""Ca"": 5.0, ""P"": 2.0, ""O"": 12.0, ""Si"": 1.0}",482.411,#FFFFFF,hexagonal,{5},94.0
Tsaregorodtsevite,N(CH3)4Si4(SiAl)O12,"{""N"": 1.0, ""C"": 4.0, ""H"": 12.0, ""Si"": 5.0, ""Al"": 1.0, ""O"": 12.0}",433.542,#FFFFFF,orthorhombic,"{40,53}",436.0
Tschaunerite,(Fe2+)(Fe2+Ti4+)O4,"{""Fe"": 2.0, ""Ti"": 1.0, ""O"": 4.0}",223.553,#8B4513,orthorhombic,{6},205.0
Tschermigite,(NH4)Al(SO4)2·12H2O,"{""N"": 1.0, ""H"": 28.0, ""Al"": 1.0, ""S"": 2.0, ""O"": 20.0}",453.313,#FFFFFF,cubic,"{45,47,50,53,54,55}",3310.0
Tschernichite,CaAl2Si6O16·8H2O,"{""Ca"": 1.0, ""Al"": 2.0, ""Si"": 6.0, ""O"": 24.0, ""H"": 16.0}",662.656,#FFFFFF,monoclinic,{10},107.0
Tsnigriite,Ag9SbTe3S3,"{""Ag"": 9.0, ""Sb"": 1.0, ""Te"": 3.0, ""S"": 3.0}",1571.57,#A9A9A9,monoclinic,{33},797.0
Tsugaruite,Pb28As15S50Cl,"{""Pb"": 28.0, ""As"": 15.0, ""S"": 50.0, ""Cl"": 1.0}",8563.88,#708090,orthorhombic,{33},797.0
Tsumebite,Pb2Cu(PO4)(SO4)(OH),"{""Pb"": 2.0, ""Cu"": 1.0, ""P"": 1.0, ""O"": 9.0, ""S"": 1.0, ""H"": 1.0}",685.979,#FFFFFF,monoclinic,"{23,32,47}",2808.0
Tsumgallite,GaO(OH),"{""Ga"": 1.0, ""O"": 2.0, ""H"": 1.0}",102.729,#FFFFFF,orthorhombic,{47},1998.0
Tsumoite,BiTe,"{""Bi"": 1.0, ""Te"": 1.0}",336.58,#D2B48C,hexagonal,{33},797.0
Tubulite,Ag2Pb22Sb20S53,"{""Ag"": 2.0, ""Pb"": 22.0, ""Sb"": 20.0, ""S"": 53.0}",8908.52,#708090,monoclinic,{33},797.0
Tucekite,Ni9Sb2S8,"{""Ni"": 9.0, ""Sb"": 2.0, ""S"": 8.0}",1028.237,#A9A9A9,tetragonal,{33},797.0
Tugarinovite,MoO2,"{""Mo"": 1.0, ""O"": 2.0}",127.948,#FFFFFF,monoclinic,"{6,45,50,54}",1136.0
Tugtupite,Na4BeAlSi4O12Cl,"{""Na"": 4.0, ""Be"": 1.0, ""Al"": 1.0, ""Si"": 4.0, ""O"": 12.0, ""Cl"": 1.0}",467.7322,#FFFFFF,tetragonal,"{22,35,47}",2971.0
Tuhualite,NaFe2+Fe3+Si6O15,"{""Na"": 1.0, ""Fe"": 2.0, ""Si"": 6.0, ""O"": 15.0}",543.175,#556B2F,orthorhombic,"{34,35}",1290.0
Tuite,Ca3(PO4)2,"{""Ca"": 3.0, ""P"": 2.0, ""O"": 8.0}",310.174,#FFFFFF,hexagonal,{6},205.0
Tulameenite,Pt2CuFe,"{""Pt"": 2.0, ""Cu"": 1.0, ""Fe"": 1.0}",509.551,#00BFFF,tetragonal,"{7,26,37,38}",616.0
Tuliokite,Na6BaTh(CO3)6·6H2O,"{""Na"": 6.0, ""Ba"": 1.0, ""Th"": 1.0, ""C"": 6.0, ""O"": 24.0, ""H"": 12.0}",975.448,#FFFFFF,hexagonal,"{22,35}",973.0
Tumchaite,Na2ZrSi4O11·2H2O,"{""Na"": 2.0, ""Zr"": 1.0, ""Si"": 4.0, ""O"": 13.0, ""H"": 4.0}",461.563,#FFFFFF,monoclinic,{36},291.0
Tundrite-(Ce),Na2Ce2TiO2(SiO4)(CO3)2,"{""Na"": 2.0, ""Ce"": 2.0, ""Ti"": 1.0, ""O"": 12.0, ""Si"": 1.0, ""C"": 2.0}",618.182,#FFFFFF,triclinic,"{35,47}",2724.0
Tundrite-(Nd),Na2Nd2TiO2(SiO4)(CO3)2,"{""Na"": 2.0, ""Nd"": 2.0, ""Ti"": 1.0, ""O"": 12.0, ""Si"": 1.0, ""C"": 2.0}",626.422,#FFFFFF,triclinic,{35},726.0
Tunellite,SrB6O9(OH)2·3H2O,"{""Sr"": 1.0, ""B"": 6.0, ""O"": 14.0, ""H"": 8.0}",384.53,#FFFFFF,monoclinic,{25},210.0
Tungsten,W,"{""W"": 1.0}",183.84,#FFFFFF,cubic,"{7,15,19,36,38,40,45,50}",1713.0
Tungstenite,WS2,"{""W"": 1.0, ""S"": 2.0}",247.96,#A9A9A9,hexagonal,"{31,33,34,45}",2141.0
Tungstibite,Sb2WO6,"{""Sb"": 2.0, ""W"": 1.0, ""O"": 6.0}",523.354,#A9A9A9,orthorhombic,{33},797.0
Tungstite,WO3·H2O,"{""W"": 1.0, ""O"": 4.0, ""H"": 2.0}",249.852,#FFFFFF,orthorhombic,{47},1998.0
Tungusite,Ca14Fe2+9Si24O60(OH)22,"{""Ca"": 14.0, ""Fe"": 9.0, ""Si"": 24.0, ""O"": 82.0, ""H"": 22.0}",3071.831,#556B2F,triclinic,{10},107.0
Tunisite,NaCa2Al4(CO3)4(OH)8Cl,"{""Na"": 1.0, ""Ca"": 2.0, ""Al"": 4.0, ""C"": 4.0, ""O"": 20.0, ""H"": 8.0, ""Cl"": 1.0}",622.612,#FFFFFF,tetragonal,"{23,31}",754.0
Turanite,Cu2+5(VO4)2(OH)4,"{""Cu"": 5.0, ""V"": 2.0, ""O"": 12.0, ""H"": 4.0}",615.634,#FFFFFF,triclinic,{47},1998.0
Turneaureite,Ca5(AsO4)3Cl,"{""Ca"": 5.0, ""As"": 3.0, ""O"": 12.0, ""Cl"": 1.0}",652.594,#FFFFFF,hexagonal,"{32,47}",2410.0
Turquoise,CuAl6(PO4)4(OH)8·4H2O,"{""Cu"": 1.0, ""Al"": 6.0, ""P"": 4.0, ""O"": 28.0, ""H"": 16.0}",813.434,#FFFFFF,triclinic,{47},1998.0
Tuzlaite,NaCaB5O8(OH)2·3H2O,"{""Na"": 1.0, ""Ca"": 1.0, ""B"": 5.0, ""O"": 13.0, ""H"": 8.0}",333.169,#FFFFFF,monoclinic,"{23,25}",608.0
Tvalchrelidzeite,Hg3SbAsS3,"{""Hg"": 3.0, ""Sb"": 1.0, ""As"": 1.0, ""S"": 3.0}",894.632,#FFD700,monoclinic,{33},797.0
Tvedalite,Ca4Be3Si6O17(OH)4·3H2O,"{""Ca"": 4.0, ""Be"": 3.0, ""Si"": 6.0, ""O"": 24.0, ""H"": 10.0}",749.9146,#FFFFFF,orthorhombic,{35},726.0
Tvrdyite,Fe2+Fe3+2Al3(PO4)4(OH)5(H2O)4·2H2O,"{""Fe"": 3.0, ""Al"": 3.0, ""P"": 4.0, ""O"": 27.0, ""H"": 17.0}",821.486,#556B2F,monoclinic,{47},1998.0
Twinnite,PbSbAsS4,"{""Pb"": 1.0, ""Sb"": 1.0, ""As"": 1.0, ""S"": 4.0}",532.122,#708090,monoclinic,{33},797.0
Tychite,Na6Mg2(CO3)4(SO4),"{""Na"": 6.0, ""Mg"": 2.0, ""C"": 4.0, ""O"": 16.0, ""S"": 1.0}",522.638,#FFFFFF,cubic,"{35,36}",1017.0
Tyretskite,Ca2B5O9(OH)·H2O,"{""Ca"": 2.0, ""B"": 5.0, ""O"": 11.0, ""H"": 3.0}",313.219,#FFFFFF,triclinic,{25},210.0
Tyrolite,Ca2Cu9(AsO4)4(CO3)(OH)8·11H2O,"{""Ca"": 2.0, ""Cu"": 9.0, ""As"": 4.0, ""O"": 38.0, ""C"": 1.0, ""H"": 30.0}",1601.971,#FFFFFF,monoclinic,{47},1998.0
Tyuyamunite,Ca(UO2)2(VO4)2·5-8H2O,"{""Ca"": 1.0, ""U"": 2.0, ""O"": 20.0, ""V"": 2.0, ""H"": 16.0}",954.13,#FFFFFF,tetragonal,{47},1998.0
Uakitite,VN,"{""V"": 1.0, ""N"": 1.0}",64.949,#FFFFFF,cubic,{5},94.0
Udinaite,NaMg4(VO4)3,"{""Na"": 1.0, ""Mg"": 4.0, ""V"": 3.0, ""O"": 12.0}",465.024,#FFFFFF,tetragonal,{45},424.0
Uduminelite,Ca3Al8(PO4)2O12·2H2O,"{""Ca"": 3.0, ""Al"": 8.0, ""P"": 2.0, ""O"": 22.0, ""H"": 4.0}",754.048,#FFFFFF,unknown,"{34,47}",2562.0
Uklonskovite,NaMg(SO4)F·2H2O,"{""Na"": 1.0, ""Mg"": 1.0, ""S"": 1.0, ""O"": 6.0, ""F"": 1.0, ""H"": 4.0}",198.379,#FFFFFF,monoclinic,{47},1998.0
Ulexite,NaCaB5O6(OH)6·5H2O,"{""Na"": 1.0, ""Ca"": 1.0, ""B"": 5.0, ""O"": 17.0, ""H"": 16.0}",405.229,#FFFFFF,triclinic,{25},210.0
Ullmannite,NiSbS,"{""Ni"": 1.0, ""Sb"": 1.0, ""S"": 1.0}",212.513,#A9A9A9,triclinic,{33},797.0
Ulrichite,CaCu(UO2)(PO4)2·4H2O,"{""Ca"": 1.0, ""Cu"": 1.0, ""U"": 1.0, ""O"": 14.0, ""P"": 2.0, ""H"": 8.0}",635.652,#FFFFFF,monoclinic,{22},247.0
Ulvospinel,Fe2+2TiO4,"{""Fe"": 2.0, ""Ti"": 1.0, ""O"": 4.0}",223.553,#8B4513,cubic,"{5,6,8,31,35,40}",1793.0
Umangite,Cu3Se2,"{""Cu"": 3.0, ""Se"": 2.0}",348.58,#00BFFF,tetragonal,{33},797.0
Umbite,K2ZrSi3O9·H2O,"{""K"": 2.0, ""Zr"": 1.0, ""Si"": 3.0, ""O"": 10.0, ""H"": 2.0}",415.681,#FFFFFF,orthorhombic,{35},726.0
Umbrianite,K7Na2Ca2[Al3Si10O29]F2Cl2,"{""K"": 7.0, ""Na"": 2.0, ""Ca"": 2.0, ""Al"": 3.0, ""Si"": 10.0, ""O"": 29.0, ""F"": 2.0, ""Cl"": 2.0}",1334.485,#FFFFFF,orthorhombic,{35},726.0
Umohoite,(UO2)(MoO4)·2H2O,"{""U"": 1.0, ""O"": 8.0, ""Mo"": 1.0, ""H"": 4.0}",466.004,#FFFFFF,monoclinic,{47},1998.0
Ungavaite,Pd4Sb3,"{""Pd"": 4.0, ""Sb"": 3.0}",790.96,#A9A9A9,tetragonal,"{33,36,37}",1223.0
Ungemachite,K3Na8Fe3+(SO4)6(NO3)2·6H2O,"{""K"": 3.0, ""Na"": 8.0, ""Fe"": 1.0, ""S"": 6.0, ""O"": 36.0, ""N"": 2.0, ""H"": 12.0}",1165.493,#556B2F,hexagonal,{47},1998.0
Upalite,Al(UO2)3(PO4)2O(OH)·7H2O,"{""Al"": 1.0, ""U"": 3.0, ""O"": 23.0, ""P"": 2.0, ""H"": 15.0}",1186.117,#FFFFFF,monoclinic,{47},1998.0
Uralborite,CaB2O2(OH)4,"{""Ca"": 1.0, ""B"": 2.0, ""O"": 6.0, ""H"": 4.0}",161.724,#FFFFFF,monoclinic,{23},398.0