name,formula,elements,density,color,crystal,pm_ids,gacha_weight
Uranocircite,Ba(UO2)2(PO4)2·10H2O,"{""Ba"": 1.0, ""U"": 2.0, ""O"": 22.0, ""P"": 2.0, ""H"": 20.0}",1047.476,#FFFFFF,monoclinic,{47},1.5015e-08
Uranoclite,(UO2)2(OH)2Cl2(H2O)4,"{""U"": 2.0, ""O"": 10.0, ""H"": 10.0, ""Cl"": 2.0}",717.03,#FFFFFF,monoclinic,{47},1.5015e-07
Uranophane,Ca(UO2)2(SiO3OH)2·5H2O,"{""Ca"": 1.0, ""U"": 2.0, ""O"": 17.0, ""Si"": 2.0, ""H"": 12.0}",856.387,#FFFFFF,monoclinic,"{47,55,57}",3.92111e-07
Uranopilite,(UO2)6(SO4)O2(OH)6·14H2O,"{""U"": 6.0, ""O"": 38.0, ""S"": 1.0, ""H"": 34.0}",2102.474,#FFFFFF,triclinic,"{47,55}",3.761e-09
Uranopolycrase,UTi2O6,"{""U"": 1.0, ""Ti"": 2.0, ""O"": 6.0}",429.758,#ADFF2F,orthorhombic,"{26,34}",1.7319e-08
Uranosilite,(UO2)Si7O15,"{""U"": 1.0, ""O"": 17.0, ""Si"": 7.0}",706.608,#ADFF2F,orthorhombic,{47},1.5015e-07
Uranosphaerite,Bi(UO2)O2(OH),"{""Bi"": 1.0, ""U"": 1.0, ""O"": 5.0, ""H"": 1.0}",528.013,#FFFFFF,monoclinic,{47},1.5015e-07
Uranospinite,Ca(UO2)2(AsO4)2·10H2O,"{""Ca"": 1.0, ""U"": 2.0, ""O"": 22.0, ""As"": 2.0, ""H"": 20.0}",1038.12,#FFFFFF,unknown,{47},1.5015e-07
Uranotungstite,Ba(UO2)2W2O8(OH)2·H2O,"{""Ba"": 1.0, ""U"": 2.0, ""O"": 15.0, ""W"": 2.0, ""H"": 4.0}",1225.087,#FFFFFF,orthorhombic,{47},1.5015e-07
Urea,CO(NH2)2,"{""C"": 1.0, ""O"": 1.0, ""N"": 2.0, ""H"": 4.0}",60.056,#FFFFFF,tetragonal,"{49,52}",2.68759e-07
Uricite,C5H4N4O3,"{""C"": 5.0, ""H"": 4.0, ""N"": 4.0, ""O"": 3.0}",168.112,#FFFFFF,monoclinic,"{49,52}",2.68759e-07
Uroxite,[(UO2)2(C2O4)(OH)2(H2O)2]·H2O,"{""U"": 2.0, ""O"": 13.0, ""C"": 2.0, ""H"": 8.0}",716.133,#FFFFFF,monoclinic,"{53,55}",1.23349e-07
Urusovite,CuAlO(AsO4),"{""Cu"": 1.0, ""Al"": 1.0, ""O"": 5.0, ""As"": 1.0}",245.445,#FFFFFF,monoclinic,{45},2.3585e-08
Ushkovite,MgFe3+2(PO4)2(OH)2·8H2O,"{""Mg"": 1.0, ""Fe"": 2.0, ""P"": 2.0, ""O"": 18.0, ""H"": 18.0}",504.069,#556B2F,triclinic,{47},1.5015e-08
Usovite,Ba2CaMgAl2F14,"{""Ba"": 2.0, ""Ca"": 1.0, ""Mg"": 1.0, ""Al"": 2.0, ""F"": 14.0}",658.979,#FFFFFF,monoclinic,"{23,45}",8.9119e-08
Ussingite,Na2AlSi3O8(OH),"{""Na"": 2.0, ""Al"": 1.0, ""Si"": 3.0, ""O"": 9.0, ""H"": 1.0}",302.216,#FFFFFF,triclinic,"{9,35}",2.31286e-07
Usturite,Ca3(SbZr)(FeO4)3,"{""Ca"": 3.0, ""Sb"": 1.0, ""Zr"": 1.0, ""Fe"": 3.0, ""O"": 12.0}",692.741,#556B2F,cubic,{31},2.809e-08
Utahite,MgCu2+4Zn2Te6+3O14(OH)4·6H2O,"{""Mg"": 1.0, ""Cu"": 4.0, ""Zn"": 2.0, ""Te"": 3.0, ""O"": 24.0, ""H"": 16.0}",1192.153,#FFFFFF,triclinic,"{47,55}",1.88029e-07
Uvanite,(UO2)2V5+6O17·15H2O (?),"{""U"": 2.0, ""O"": 36.0, ""V"": 6.0, ""H"": 30.0}",1387.916,#FFFFFF,unknown,{47},1.5015e-07
Uvarovite,Ca3Cr2(SiO4)3,"{""Ca"": 3.0, ""Cr"": 2.0, ""Si"": 3.0, ""O"": 12.0}",500.469,#FFFFFF,orthorhombic,"{13,31,38,40}",9.674325e-06
Uvite,CaMg3(Al5Mg)(Si6O18)(BO3)3(OH)3(OH),"{""Ca"": 1.0, ""Mg"": 4.0, ""Al"": 5.0, ""Si"": 6.0, ""O"": 31.0, ""B"": 3.0, ""H"": 4.0}",973.149,#FFFFFF,hexagonal,"{19,23,26,34,40}",4.6185948e-05
Uytenbogaardtite,Ag3AuS2,"{""Ag"": 3.0, ""Au"": 1.0, ""S"": 2.0}",584.7,#A9A9A9,cubic,{33},2.51e-10
Uzonite,As4S5,"{""As"": 4.0, ""S"": 5.0}",459.988,#FFD700,monoclinic,"{33,45}",7.23e-10
Vaesite,NiS2,"{""Ni"": 1.0, ""S"": 2.0}",122.813,#A9A9A9,cubic,{12},1.55e-09
Vajdakite,(Mo6+O2)2As3+2O5·3H2O,"{""Mo"": 2.0, ""O"": 12.0, ""As"": 2.0, ""H"": 6.0}",539.78,#FFFFFF,monoclinic,{47},1.5015e-07
Vakhrushevaite,Mg5Cr(AlSi3O10)(OH)8,"{""Mg"": 5.0, ""Cr"": 1.0, ""Al"": 1.0, ""Si"": 3.0, ""O"": 18.0, ""H"": 8.0}",580.804,#FFFFFF,triclinic,{},1e-06
Valentinite,Sb2O3,"{""Sb"": 2.0, ""O"": 3.0}",291.517,#A9A9A9,orthorhombic,"{47,55,56}",2.57959e-07
Valleyite,Ca4Fe6O13,"{""Ca"": 4.0, ""Fe"": 6.0, ""O"": 13.0}",703.369,#8B4513,cubic,"{8,9}",8.489459e-06
Vanackerite,Pb4Cd(AsO4)3Cl,"{""Pb"": 4.0, ""Cd"": 1.0, ""As"": 3.0, ""O"": 12.0, ""Cl"": 1.0}",1393.414,#FFFFFF,hexagonal,{47},1.5015e-07
Vanadinite,Pb5(VO4)3Cl,"{""Pb"": 5.0, ""V"": 3.0, ""O"": 12.0, ""Cl"": 1.0}",1416.264,#FFFFFF,hexagonal,{47},1.5015e-07
Vanadiocarpholite,Mn2+V3+AlSi2O6(OH)4,"{""Mn"": 1.0, ""V"": 1.0, ""Al"": 1.0, ""Si"": 2.0, ""O"": 10.0, ""H"": 4.0}",353.054,#FFFFFF,orthorhombic,{32},1.214e-09
Vanadio-oxy-chromium-dravite,NaV3(Cr4Mg2)(Si6O18)(BO3)3(OH)3O,"{""Na"": 1.0, ""V"": 3.0, ""Cr"": 4.0, ""Mg"": 2.0, ""Si"": 6.0, ""O"": 31.0, ""B"": 3.0, ""H"": 3.0}",1132.343,#FFFFFF,hexagonal,"{23,31}",1.786884e-06
Vanadio-oxy-dravite,NaV3(Al4Mg2)(Si6O18)(BO3)3(OH)3O,"{""Na"": 1.0, ""V"": 3.0, ""Al"": 4.0, ""Mg"": 2.0, ""Si"": 6.0, ""O"": 31.0, ""B"": 3.0, ""H"": 3.0}",1032.287,#FFFFFF,hexagonal,"{23,31}",1.786884e-06
Vanadio-pargasite,NaCa2(Mg4V)(Si6Al2)O22(OH)2,"{""Na"": 1.0, ""Ca"": 2.0, ""Mg"": 4.0, ""V"": 1.0, ""Si"": 6.0, ""Al"": 2.0, ""O"": 24.0, ""H"": 2.0}",859.774,#FFFFFF,monoclinic,{47},1.5015e-07
Vanadium,V,"{""V"": 1.0}",50.942,#FFFFFF,cubic,"{33,45,51,56}",1.84187e-07
Vanadoakasakaite-(Ce),CaCe3+(V3+AlMn2+)(Si2O7)(SiO4)O(OH),"{""Ca"": 1.0, ""Ce"": 1.0, ""V"": 1.0, ""Al"": 1.0, ""Mn"": 1.0, ""Si"": 3.0, ""O"": 13.0, ""H"": 1.0}",606.31,#FFFFFF,monoclinic,{},5e-08
Vanadoakasakaite-(La),CaLa(V3+AlMn2+)(Si2O7)(SiO4)O(OH),"{""Ca"": 1.0, ""La"": 1.0, ""V"": 1.0, ""Al"": 1.0, ""Mn"": 1.0, ""Si"": 3.0, ""O"": 13.0, ""H"": 1.0}",605.1,#FFFFFF,monoclinic,{},5e-08
Vanadoallanite-(La),CaLa3+V3+AlFe2+(Si2O7)(SiO4)O(OH),"{""Ca"": 1.0, ""La"": 1.0, ""V"": 1.0, ""Al"": 1.0, ""Fe"": 1.0, ""Si"": 3.0, ""O"": 13.0, ""H"": 1.0}",606.007,#556B2F,monoclinic,{32},2.4272e-08
Vanadoandrosite-(Ce),MnCe(V3+AlMn2+)[Si2O7][SiO4]O(OH),"{""Mn"": 2.0, ""Ce"": 1.0, ""V"": 1.0, ""Al"": 1.0, ""Si"": 3.0, ""O"": 13.0, ""H"": 1.0}",621.17,#FFFFFF,monoclinic,{32},1.214e-09
Vanadomalayaite,CaVO(SiO4),"{""Ca"": 1.0, ""V"": 1.0, ""O"": 5.0, ""Si"": 1.0}",199.1,#FFFFFF,monoclinic,{32},2.4272e-08
Vanalite,NaAl8V10O38·30H2O,"{""Na"": 1.0, ""Al"": 8.0, ""V"": 10.0, ""O"": 68.0, ""H"": 60.0}",1896.678,#FFFFFF,monoclinic,{47},1.5015e-07
Vandenbrandeite,Cu(UO2)(OH)4,"{""Cu"": 1.0, ""U"": 1.0, ""O"": 6.0, ""H"": 4.0}",401.602,#FFFFFF,triclinic,{47},1.5015e-07
Vanderheydenite,Zn6(PO4)2(SO4)(OH)4·7H2O,"{""Zn"": 6.0, ""P"": 2.0, ""O"": 23.0, ""S"": 1.0, ""H"": 18.0}",872.409,#FFFFFF,monoclinic,{47},3.003e-09
Vandermeerscheite,K2[(UO2)2V2O8]·2H2O,"{""K"": 2.0, ""U"": 2.0, ""O"": 14.0, ""V"": 2.0, ""H"": 4.0}",884.158,#FFFFFF,monoclinic,{47},1.5015e-07
Vaniniite,Ca2Mn2+3Mn3+2O2(AsO4)4·2H2O,"{""Ca"": 2.0, ""Mn"": 5.0, ""O"": 20.0, ""As"": 4.0, ""H"": 4.0}",978.546,#FFFFFF,monoclinic,{47},7.508e-09
Vanmeersscheite,U(UO2)3(PO4)2(OH)6·4H2O,"{""U"": 4.0, ""O"": 24.0, ""P"": 2.0, ""H"": 14.0}",1412.156,#FFFFFF,orthorhombic,{47},1.5015e-08
Vanoxite,V6O13·8H2O (?),"{""V"": 6.0, ""O"": 21.0, ""H"": 16.0}",657.759,#FFFFFF,unknown,"{47,53}",2.3562e-07
Vanpeltite,(Mo2O5)(S4+O3)·4H2O,"{""Mo"": 2.0, ""O"": 12.0, ""S"": 1.0, ""H"": 8.0}",424.012,#FFFFFF,monoclinic,{},2e-08
Vantasselite,Al4(PO4)3(OH)3·9H2O,"{""Al"": 4.0, ""P"": 3.0, ""O"": 24.0, ""H"": 21.0}",605.994,#FFFFFF,orthorhombic,{47},1.5015e-08
Vanthoffite,Na6Mg(SO4)4,"{""Na"": 6.0, ""Mg"": 1.0, ""S"": 4.0, ""O"": 16.0}",546.469,#FFFFFF,monoclinic,"{25,45}",1.424e-09
Vapnikite,Ca2CaUO6,"{""Ca"": 3.0, ""U"": 1.0, ""O"": 6.0}",454.258,#ADFF2F,monoclinic,{51},7.8125e-08
Vargite,MnCu2Mn2(AsO4)2(OH)4(H2O)4,"{""Mn"": 3.0, ""Cu"": 2.0, ""As"": 2.0, ""O"": 16.0, ""H"": 12.0}",709.83,#FFFFFF,monoclinic,{47},7.508e-09
Variscite,Al(PO4)·2H2O,"{""Al"": 1.0, ""P"": 1.0, ""O"": 6.0, ""H"": 4.0}",157.982,#FFFFFF,orthorhombic,"{21,34,47,52}",4.3335e-08
Varulite,Na2Mn(MnFe3+)(PO4)3,"{""Na"": 2.0, ""Mn"": 2.0, ""Fe"": 1.0, ""P"": 3.0, ""O"": 12.0}",496.611,#556B2F,monoclinic,"{21,31,34}",8.62e-09
Vashegyite,Al11(PO4)9(OH)6·38H2O,"{""Al"": 11.0, ""P"": 9.0, ""O"": 80.0, ""H"": 82.0}",1938.144,#FFFFFF,orthorhombic,"{22,47}",1.9064e-08
Vasilseverginite,Cu9O4(AsO4)2(SO4)2,"{""Cu"": 9.0, ""O"": 20.0, ""As"": 2.0, ""S"": 2.0}",1105.858,#FFFFFF,monoclinic,{45},4.72e-10
Vasilyevite,(Hg2)2+10O6I3Br2Cl(CO3),"{""Hg"": 20.0, ""O"": 9.0, ""I"": 3.0, ""Br"": 2.0, ""Cl"": 1.0, ""C"": 1.0}",4743.76,#FFFFFF,triclinic,{47},1.5015e-07
Vastmanlandite-(Ce),Ce3CaMg2Al2Si5O19(OH)2F,"{""Ce"": 3.0, ""Ca"": 1.0, ""Mg"": 2.0, ""Al"": 2.0, ""Si"": 5.0, ""O"": 21.0, ""H"": 2.0, ""F"": 1.0}",1060.43,#FFFFFF,monoclinic,"{32,34}",2.1e-09
Vaterite,Ca(CO3),"{""Ca"": 1.0, ""C"": 1.0, ""O"": 3.0}",100.086,#FFFFFF,triclinic,"{23,40,49,51}",1.1371178e-05
Vaughanite,TlHgSb4S7,"{""Tl"": 1.0, ""Hg"": 1.0, ""Sb"": 4.0, ""S"": 7.0}",1116.43,#A9A9A9,triclinic,{33},2.51e-10
Vauquelinite,CuPb2(CrO4)(PO4)(OH),"{""Cu"": 1.0, ""Pb"": 2.0, ""Cr"": 1.0, ""O"": 9.0, ""P"": 1.0, ""H"": 1.0}",705.915,#FFFFFF,monoclinic,{47},1.5015e-08
Vauxite,Fe2+Al2(PO4)2(OH)2·6H2O,"{""Fe"": 1.0, ""Al"": 2.0, ""P"": 2.0, ""O"": 16.0, ""H"": 14.0}",441.853,#556B2F,triclinic,{47},1.5015e-08
Vavrinite,Ni2SbTe2,"{""Ni"": 2.0, ""Sb"": 1.0, ""Te"": 2.0}",494.346,#7FFF00,hexagonal,{33},1.2547e-08
Vayrynenite,BeMn2+(PO4)(OH),"{""Be"": 1.0, ""Mn"": 1.0, ""P"": 1.0, ""O"": 5.0, ""H"": 1.0}",175.9272,#FFFFFF,monoclinic,{22},2.024e-09
Veatchite,Sr2B11O16(OH)5·H2O,"{""Sr"": 2.0, ""B"": 11.0, ""O"": 22.0, ""H"": 7.0}",653.184,#FFFFFF,triclinic,{25},4.7619e-08
Vegrandisite,BaCl2,"{""Ba"": 1.0, ""Cl"": 2.0}",208.23,#FFFFFF,orthorhombic,{},1e-06
Velikite,Cu2HgSnS4,"{""Cu"": 2.0, ""Hg"": 1.0, ""Sn"": 1.0, ""S"": 4.0}",574.632,#A9A9A9,tetragonal,{12},1.55e-09
Vendidaite,Al2(SO4)(OH)3Cl·6H2O,"{""Al"": 2.0, ""S"": 1.0, ""O"": 13.0, ""H"": 15.0, ""Cl"": 1.0}",344.581,#FFFFFF,monoclinic,{47},3.003e-09
Verbeekite,PdSe2,"{""Pd"": 1.0, ""Se"": 2.0}",264.362,#FFFFFF,monoclinic,{33},1.2547e-08
Verbierite,BeCr3+2TiO6,"{""Be"": 1.0, ""Cr"": 2.0, ""Ti"": 1.0, ""O"": 6.0}",256.8652,#FFFFFF,orthorhombic,{34},5.319e-09
Vergasovaite,Cu3O(MoO4)(SO4),"{""Cu"": 3.0, ""O"": 9.0, ""Mo"": 1.0, ""S"": 1.0}",462.639,#FFFFFF,orthorhombic,{45},4.72e-10
Verneite,Na2Ca3Al2F14,"{""Na"": 2.0, ""Ca"": 3.0, ""Al"": 2.0, ""F"": 14.0}",486.15,#FFFFFF,cubic,{45},1.179e-09
Versiliaite,(Fe2+2Fe3+2)(Fe3+2Sb3+6)O16S,"{""Fe"": 6.0, ""Sb"": 6.0, ""O"": 16.0, ""S"": 1.0}",1353.674,#556B2F,orthorhombic,{40},1.88088e-07
Vertumnite,Ca4Al4Si4O6(OH)24·3H2O,"{""Ca"": 4.0, ""Al"": 4.0, ""Si"": 4.0, ""O"": 33.0, ""H"": 30.0}",938.787,#FFFFFF,hexagonal,"{8,10}",8.508592e-06
Veselovskyite,ZnCu4(AsO4)2(AsO3OH)2·9H2O,"{""Zn"": 1.0, ""Cu"": 4.0, ""As"": 4.0, ""O"": 25.0, ""H"": 20.0}",1039.387,#FFFFFF,triclinic,"{47,55}",1.88029e-07
Vesignieite,Cu3Ba(VO4)2(OH)2,"{""Cu"": 3.0, ""Ba"": 1.0, ""V"": 2.0, ""O"": 10.0, ""H"": 2.0}",591.858,#FFFFFF,monoclinic,{47},1.5015e-07
Vestaite,(Ti4+Fe2+)Ti4+3O9,"{""Ti"": 4.0, ""Fe"": 1.0, ""O"": 9.0}",391.304,#8B4513,monoclinic,{6},1.4634e-08
Vielleaureite-(Ce),Mn2+Ce(MgAlMn2+)(Si2O7)(SiO4)F(OH),"{""Mn"": 2.0, ""Ce"": 1.0, ""Mg"": 1.0, ""Al"": 1.0, ""Si"": 3.0, ""O"": 12.0, ""F"": 1.0, ""H"": 1.0}",597.532,#FFFFFF,monoclinic,{},5e-08
Vigezzite,CaNb2O6,"{""Ca"": 1.0, ""Nb"": 2.0, ""O"": 6.0}",321.884,#FFFFFF,orthorhombic,"{34,36}",5.2095e-08
Vihorlatite,Bi24Se17Te4,"{""Bi"": 24.0, ""Se"": 17.0, ""Te"": 4.0}",6868.427,#D2B48C,hexagonal,{33},1.2547e-08
Viitaniemiite,NaCaAl(PO4)F3,"{""Na"": 1.0, ""Ca"": 1.0, ""Al"": 1.0, ""P"": 1.0, ""O"": 4.0, ""F"": 3.0}",242.014,#FFFFFF,monoclinic,"{19,34}",1.749138e-06
Vikingite,Ag5Pb8Bi13S30,"{""Ag"": 5.0, ""Pb"": 8.0, ""Bi"": 13.0, ""S"": 30.0}",5875.49,#708090,monoclinic,{33},2.51e-10
Villamaninite,CuS2,"{""Cu"": 1.0, ""S"": 2.0}",127.666,#A9A9A9,monoclinic,{12},1.55e-09
Villiaumite,NaF,"{""Na"": 1.0, ""F"": 1.0}",41.988,#FFFFFF,cubic,"{25,35}",3.07e-09
Vimsite,CaB2O2(OH)4,"{""Ca"": 1.0, ""B"": 2.0, ""O"": 6.0, ""H"": 4.0}",161.724,#FFFFFF,monoclinic,{23},1.758794e-06
Vincentite,Pd3As,"{""Pd"": 3.0, ""As"": 1.0}",394.182,#808080,monoclinic,"{33,37}",8.6621e-08
Vinciennite,Cu10Fe4SnAsS16,"{""Cu"": 10.0, ""Fe"": 4.0, ""Sn"": 1.0, ""As"": 1.0, ""S"": 16.0}",1565.432,#DAA520,tetragonal,{33},2.51e-10
Violarite,FeNi2S4,"{""Fe"": 1.0, ""Ni"": 2.0, ""S"": 4.0}",301.471,#DAA520,cubic,"{12,33,37}",3.283e-09
Virgilite,LiAlSi2O6,"{""Li"": 1.0, ""Al"": 1.0, ""Si"": 2.0, ""O"": 6.0}",186.086,#FFFFFF,hexagonal,"{9,26}",1.1874e-07
Virgilluethite,MoO3·H2O,"{""Mo"": 1.0, ""O"": 4.0, ""H"": 2.0}",161.962,#FFFFFF,monoclinic,{},1e-06
Vishnevite,Na8(Al6Si6)O24(SO4)·2H2O,"{""Na"": 8.0, ""Al"": 6.0, ""Si"": 6.0, ""O"": 30.0, ""S"": 1.0, ""H"": 4.0}",1030.384,#FFFFFF,hexagonal,{35},2.75e-10
Viskontite,Pb5Cu2(SO4)3(SeO3)(OH)6,"{""Pb"": 5.0, ""Cu"": 2.0, ""S"": 3.0, ""O"": 21.0, ""Se"": 1.0, ""H"": 6.0}",1680.27,#FFFFFF,orthorhombic,{},2e-08
Vismirnovite,ZnSn(OH)6,"{""Zn"": 1.0, ""Sn"": 1.0, ""O"": 6.0, ""H"": 6.0}",286.132,#FFFFFF,cubic,{47},1.5015e-07
Vistepite,Mn4SnB2O2(Si2O7)2(OH)2,"{""Mn"": 4.0, ""Sn"": 1.0, ""B"": 2.0, ""O"": 18.0, ""Si"": 4.0, ""H"": 2.0}",762.42,#FFFFFF,triclinic,{32},1.214e-09
Viteite,Pd5InAs,"{""Pd"": 5.0, ""In"": 1.0, ""As"": 1.0}",721.842,#808080,tetragonal,{33},1.2547e-08
Vitimite,Ca6B14O19(SO4)(OH)14·5H2O,"{""Ca"": 6.0, ""B"": 14.0, ""O"": 42.0, ""S"": 1.0, ""H"": 24.0}",1120.018,#FFFFFF,monoclinic,{23},3.5176e-08
Vittinkiite,MnMn3MnSi5O15,"{""Mn"": 5.0, ""Si"": 5.0, ""O"": 15.0}",655.1,#FFB6C1,triclinic,{},5e-08
Vitusite-(Ce),Na3Ce(PO4)2,"{""Na"": 3.0, ""Ce"": 1.0, ""P"": 2.0, ""O"": 8.0}",399.03,#FFFFFF,orthorhombic,{35},1.377e-09
Vivianite,Fe2+3(PO4)2·8H2O,"{""Fe"": 3.0, ""P"": 2.0, ""O"": 16.0, ""H"": 16.0}",501.595,#556B2F,monoclinic,"{21,25,47,49,53}",5.3969e-08
Vladimirite,Ca4(AsO4)2(AsO3OH)·4H2O,"{""Ca"": 4.0, ""As"": 3.0, ""O"": 16.0, ""H"": 9.0}",650.134,#FFFFFF,monoclinic,"{47,55}",1.88029e-07
Vladkrivovichevite,[Pb32O18][Pb4Mn2O]Cl14(BO3)8·2H2O,"{""Pb"": 36.0, ""O"": 45.0, ""Mn"": 2.0, ""Cl"": 14.0, ""B"": 8.0, ""H"": 4.0}",8875.843,#FFFFFF,orthorhombic,{47},7.508e-09
Vladkuzminite,K4CuZn3(AsO4)4,"{""K"": 4.0, ""Cu"": 1.0, ""Zn"": 3.0, ""As"": 4.0, ""O"": 16.0}",971.75,#FFFFFF,monoclinic,{},1e-06
Vladykinite,Na3Sr4(Fe2+Fe3+)Si8O24,"{""Na"": 3.0, ""Sr"": 4.0, ""Fe"": 2.0, ""Si"": 8.0, ""O"": 24.0}",1139.796,#556B2F,monoclinic,{35},1.3774e-08
Vlasovite,Na2ZrSi4O11,"{""Na"": 2.0, ""Zr"": 1.0, ""Si"": 4.0, ""O"": 11.0}",425.533,#FFFFFF,monoclinic,"{19,35}",3.4978809e-05
Vlodavetsite,Ca2Al(SO4)2F2Cl·4H2O,"{""Ca"": 2.0, ""Al"": 1.0, ""S"": 2.0, ""O"": 12.0, ""F"": 2.0, ""Cl"": 1.0, ""H"": 8.0}",444.756,#FFFFFF,tetragonal,{45},4.72e-10
Vochtenite,Fe2+Fe3+(UO2)4(PO4)4(OH)·12-13H2O,"{""Fe"": 2.0, ""U"": 4.0, ""O"": 38.0, ""P"": 4.0, ""H"": 27.0}",1822.884,#556B2F,monoclinic,{47},1.5015e-08
Voggite,Na2Zr(PO4)(CO3)(OH)·2H2O,"{""Na"": 2.0, ""Zr"": 1.0, ""P"": 1.0, ""O"": 10.0, ""C"": 1.0, ""H"": 5.0}",345.219,#FFFFFF,monoclinic,"{8,10}",6.54507e-07
Voglite,Ca2Cu(UO2)(CO3)4·6H2O,"{""Ca"": 2.0, ""Cu"": 1.0, ""U"": 1.0, ""O"": 20.0, ""C"": 4.0, ""H"": 12.0}",761.852,#FFFFFF,monoclinic,{47},1.5015e-07
Volaschioite,Fe4(SO4)O2(OH)6·2H2O,"{""Fe"": 4.0, ""S"": 1.0, ""O"": 14.0, ""H"": 10.0}",489.506,#556B2F,monoclinic,"{47,55}",3.761e-09
Volborthite,Cu3V2O7(OH)2·2H2O,"{""Cu"": 3.0, ""V"": 2.0, ""O"": 11.0, ""H"": 6.0}",474.559,#FFFFFF,monoclinic,"{47,53,55}",2.73499e-07
Volkovskite,KCa4B22O32(OH)10Cl·4H2O,"{""K"": 1.0, ""Ca"": 4.0, ""B"": 22.0, ""O"": 46.0, ""H"": 18.0, ""Cl"": 1.0}",1226.778,#FFFFFF,triclinic,{25},4.7619e-08
Voltaite,K2Fe2+5Fe3+3Al(SO4)12·18H2O,"{""K"": 2.0, ""Fe"": 8.0, ""Al"": 1.0, ""S"": 12.0, ""O"": 66.0, ""H"": 36.0}",2028.88,#556B2F,cubic,"{45,47,55}",4.232e-09
Volynskite,AgBiTe2,"{""Ag"": 1.0, ""Bi"": 1.0, ""Te"": 2.0}",572.05,#C0C0C0,hexagonal,{33},1.2547e-08
Vonbezingite,Ca6Cu3(SO4)3(OH)12·2H2O,"{""Ca"": 6.0, ""Cu"": 3.0, ""S"": 3.0, ""O"": 26.0, ""H"": 16.0}",959.388,#FFFFFF,monoclinic,{47},3.003e-09
Vonsenite,Fe2+2Fe3+O2(BO3),"{""Fe"": 3.0, ""O"": 5.0, ""B"": 1.0}",258.34,#8B4513,orthorhombic,"{23,31,45}",1.810469e-06
Vorlanite,CaUO4,"{""Ca"": 1.0, ""U"": 1.0, ""O"": 4.0}",342.104,#ADFF2F,cubic,"{9,31,51}",1.84955e-07
Vorontsovite,(Hg5Cu)TlAs4S12,"{""Hg"": 5.0, ""Cu"": 1.0, ""Tl"": 1.0, ""As"": 4.0, ""S"": 12.0}",1955.284,#FFD700,cubic,{33},2.51e-10
Voudourisite,Cd(SO4)·H2O,"{""Cd"": 1.0, ""S"": 1.0, ""O"": 5.0, ""H"": 2.0}",226.481,#FFFFFF,monoclinic,"{47,50,54}",4.59e-09
Vozhminite,Ni4AsS2,"{""Ni"": 4.0, ""As"": 1.0, ""S"": 2.0}",373.814,#FFD700,hexagonal,{33},2.51e-10
Vranaite,Al16B4Si4O38,"{""Al"": 16.0, ""B"": 4.0, ""Si"": 4.0, ""O"": 38.0}",1195.254,#FFFFFF,monoclinic,"{22,34}",5.8216e-08
Vranciceite,Cu10Hg3S8,"{""Cu"": 10.0, ""Hg"": 3.0, ""S"": 8.0}",1493.71,#A9A9A9,triclinic,{},2e-08
Vrbaite,Hg3Tl4As8Sb2S20,"{""Hg"": 3.0, ""Tl"": 4.0, ""As"": 8.0, ""Sb"": 2.0, ""S"": 20.0}",2903.386,#FFD700,orthorhombic,{33},2.51e-10
Vuagnatite,CaAlSiO4(OH),"{""Ca"": 1.0, ""Al"": 1.0, ""Si"": 1.0, ""O"": 5.0, ""H"": 1.0}",176.148,#FFFFFF,orthorhombic,{13},1.9403e-07
Vulcanite,CuTe,"{""Cu"": 1.0, ""Te"": 1.0}",191.146,#00BFFF,orthorhombic,{33},1.2547e-08
Vuonnemite,Na6Na2Nb2Na3Ti(Si2O7)2(PO4)2O2(OF),"{""Na"": 11.0, ""Nb"": 2.0, ""Ti"": 1.0, ""Si"": 4.0, ""O"": 25.0, ""P"": 2.0, ""F"": 1.0}",1079.83,#FFFFFF,triclinic,"{9,35}",4.626e-09
Vuorelainenite,Mn2+V3+2O4,"{""Mn"": 1.0, ""V"": 2.0, ""O"": 4.0}",220.818,#FFB6C1,cubic,{40},4.70219e-07
Vyacheslavite,U4+(PO4)(OH),"{""U"": 1.0, ""P"": 1.0, ""O"": 5.0, ""H"": 1.0}",350.007,#FFFFFF,orthorhombic,{47},1.5015e-08
Vyalsovite,CaFeAlS(OH)5,"{""Ca"": 1.0, ""Fe"": 1.0, ""Al"": 1.0, ""S"": 1.0, ""O"": 5.0, ""H"": 5.0}",240.0,#556B2F,monoclinic,"{31,33}",8.13e-10
Vymazalovaite,Pd3Bi2S2,"{""Pd"": 3.0, ""Bi"": 2.0, ""S"": 2.0}",801.34,#A9A9A9,cubic,{33},2.51e-10
Vysokyite,U4+[AsO2(OH)2]4·4H2O,"{""U"": 1.0, ""As"": 4.0, ""O"": 20.0, ""H"": 16.0}",873.826,#FFFFFF,triclinic,"{47,55}",1.88029e-07
Vysotskite,PdS,"{""Pd"": 1.0, ""S"": 1.0}",138.48,#A9A9A9,tetragonal,"{12,37}",3.032e-09
Wadalite,Ca6Al5Si2O16Cl3,"{""Ca"": 6.0, ""Al"": 5.0, ""Si"": 2.0, ""O"": 16.0, ""Cl"": 3.0}",793.882,#FFFFFF,cubic,"{6,45,54}",1.151e-07
Wadeite,K2ZrSi3O9,"{""K"": 2.0, ""Zr"": 1.0, ""Si"": 3.0, ""O"": 9.0}",397.666,#FFFFFF,hexagonal,{35},1.3774e-08
Wadsleyite,Mg2SiO4,"{""Mg"": 2.0, ""Si"": 1.0, ""O"": 4.0}",140.691,#FFFFFF,monoclinic,{6},6.3415e-08
Wagnerite,Mg2(PO4)F,"{""Mg"": 2.0, ""P"": 1.0, ""O"": 4.0, ""F"": 1.0}",162.578,#FFFFFF,monoclinic,"{21,34,35,39,40,50,54}",4.89235e-07
Waimirite-(Y),YF3,"{""Y"": 1.0, ""F"": 3.0}",145.9,#FFFFFF,orthorhombic,{23},8.794e-08
Wairakite,Ca(Si4Al2)O12·2H2O,"{""Ca"": 1.0, ""Si"": 4.0, ""Al"": 2.0, ""O"": 14.0, ""H"": 4.0}",434.4,#FFFFFF,monoclinic,"{14,16,17}",6.24643e-07
Wairauite,CoFe,"{""Co"": 1.0, ""Fe"": 1.0}",114.778,#4169E1,cubic,"{6,13,38}",2.90627e-07
Wakefieldite-(Ce),CeVO4,"{""Ce"": 1.0, ""V"": 1.0, ""O"": 4.0}",255.058,#FFFFFF,tetragonal,"{31,34}",4.582e-08
Wakefieldite-(La),LaVO4,"{""La"": 1.0, ""V"": 1.0, ""O"": 4.0}",253.848,#FFFFFF,tetragonal,"{31,34}",4.582e-08
Wakefieldite-(Nd),NdVO4,"{""Nd"": 1.0, ""V"": 1.0, ""O"": 4.0}",259.178,#FFFFFF,tetragonal,"{31,34}",4.582e-08
Wakefieldite-(Y),YVO4,"{""Y"": 1.0, ""V"": 1.0, ""O"": 4.0}",203.844,#FFFFFF,tetragonal,{34},1.773e-08
Wallisite,CuPbTlAs2S5,"{""Cu"": 1.0, ""Pb"": 1.0, ""Tl"": 1.0, ""As"": 2.0, ""S"": 5.0}",785.27,#708090,triclinic,{33},2.51e-10
Wallkilldellite,Ca2Mn2+3(AsO4)2(OH)4·9H2O,"{""Ca"": 2.0, ""Mn"": 3.0, ""As"": 2.0, ""O"": 21.0, ""H"": 22.0}",752.969,#FFFFFF,unknown,{32},1.214e-09
Wallkilldellite-(Fe),Ca2Fe2+3(AsO4)2(OH)4·9H2O,"{""Ca"": 2.0, ""Fe"": 3.0, ""As"": 2.0, ""O"": 21.0, ""H"": 22.0}",755.69,#556B2F,hexagonal,{47},1.5015e-07
Walpurgite,Bi4O4(UO2)(AsO4)2·2H2O,"{""Bi"": 4.0, ""O"": 16.0, ""U"": 1.0, ""As"": 2.0, ""H"": 4.0}",1483.81,#FFFFFF,triclinic,{47},1.5015e-07
Walstromite,BaCa2Si3O9,"{""Ba"": 1.0, ""Ca"": 2.0, ""Si"": 3.0, ""O"": 9.0}",445.732,#FFFFFF,triclinic,"{32,51}",1.02397e-07
Wampenite,C18H16,"{""C"": 18.0, ""H"": 16.0}",232.326,#FFFFFF,monoclinic,{53},8.547e-08
Wangdaodeite,FeTiO3,"{""Fe"": 1.0, ""Ti"": 1.0, ""O"": 3.0}",151.709,#8B4513,hexagonal,"{6,30}",2.02134e-07
Wangkuirenite,Pb3Cl2(SeO3)2,"{""Pb"": 3.0, ""Cl"": 2.0, ""Se"": 2.0, ""O"": 6.0}",946.436,#FFFFFF,monoclinic,{},1e-06
Wangpuite,K3(PO4)(Mo12O36),"{""K"": 3.0, ""P"": 1.0, ""O"": 40.0, ""Mo"": 12.0}",1939.628,#FFFFFF,cubic,{},1e-07
Wangxibinite,TiFe,"{""Ti"": 1.0, ""Fe"": 1.0}",103.712,#8B4513,cubic,{},3e-07