name,formula,elements,density,color,crystal,pm_ids,gacha_weight
Sejkoraite-(Y),Y2[(UO2)8O6(SO4)4(OH)2]·26H2O,"{""Y"": 2.0, ""U"": 8.0, ""O"": 66.0, ""S"": 4.0, ""H"": 54.0}",3320.658,#FFFFFF,triclinic,"{47,55}",2262.0
Sekaninaite,Fe2+2Al4Si5O18,"{""Fe"": 2.0, ""Al"": 4.0, ""Si"": 5.0, ""O"": 18.0}",648.025,#556B2F,orthorhombic,"{34,41}",580.0
Selenium,Se,"{""Se"": 1.0}",78.971,#FFFFFF,monoclinic,"{45,47,50,54}",2929.0
Selenodantopaite,Ag5Bi13Se22,"{""Ag"": 5.0, ""Bi"": 13.0, ""Se"": 22.0}",4993.452,#C0C0C0,monoclinic,{},1.0
Selenojalpaite,Ag3CuSe2,"{""Ag"": 3.0, ""Cu"": 1.0, ""Se"": 2.0}",545.098,#00BFFF,tetragonal,{33},797.0
Selenojunoite,Cu2Pb3Bi8Se16,"{""Cu"": 2.0, ""Pb"": 3.0, ""Bi"": 8.0, ""Se"": 16.0}",3684.068,#FFFFFF,monoclinic,{},1.0
Selenolaurite,RuSe2,"{""Ru"": 1.0, ""Se"": 2.0}",259.012,#FFFFFF,cubic,{7},123.0
Selenostephanite,Ag5SbSe4,"{""Ag"": 5.0, ""Sb"": 1.0, ""Se"": 4.0}",976.994,#C0C0C0,orthorhombic,{33},797.0
Seligmannite,CuPbAsS3,"{""Cu"": 1.0, ""Pb"": 1.0, ""As"": 1.0, ""S"": 3.0}",441.848,#708090,orthorhombic,{33},797.0
Sellaite,MgF2,"{""Mg"": 1.0, ""F"": 2.0}",62.301,#FFFFFF,tetragonal,"{19,25,31,36,45,50,54}",1931.0
Selwynite,NaKBeZr2(PO4)4·2H2O,"{""Na"": 1.0, ""K"": 1.0, ""Be"": 1.0, ""Zr"": 2.0, ""P"": 4.0, ""O"": 18.0, ""H"": 4.0}",669.4582,#FFFFFF,tetragonal,{22},247.0
Semseyite,Pb9Sb8S21,"{""Pb"": 9.0, ""Sb"": 8.0, ""S"": 21.0}",3512.14,#708090,monoclinic,{33},797.0
Senandorite,AgPbSb3S6,"{""Ag"": 1.0, ""Pb"": 1.0, ""Sb"": 3.0, ""S"": 6.0}",872.71,#708090,orthorhombic,{33},797.0
Senarmontite,Sb2O3,"{""Sb"": 2.0, ""O"": 3.0}",291.517,#A9A9A9,cubic,{47},1998.0
Senegalite,Al2(PO4)(OH)3·H2O,"{""Al"": 2.0, ""P"": 1.0, ""O"": 8.0, ""H"": 5.0}",217.97,#FFFFFF,orthorhombic,{47},1998.0
Sengierite,Cu2(UO2)2(VO4)2(OH)2·6H2O,"{""Cu"": 2.0, ""U"": 2.0, ""O"": 20.0, ""V"": 2.0, ""H"": 14.0}",1039.128,#FFFFFF,monoclinic,{47},1998.0
Senkevichite,CsNaKCa2TiOSi7O18(OH),"{""Cs"": 1.0, ""Na"": 1.0, ""K"": 1.0, ""Ca"": 2.0, ""Ti"": 1.0, ""O"": 20.0, ""Si"": 7.0, ""H"": 1.0}",840.604,#FFFFFF,triclinic,{35},726.0
Sepiolite,Mg4Si6O15(OH)2·6H2O,"{""Mg"": 4.0, ""Si"": 6.0, ""O"": 23.0, ""H"": 14.0}",647.819,#FFFFFF,orthorhombic,"{16,17,23,25,31,48,49}",1246.0
Serendibite,Ca4[Mg6Al6]O4[Si6B3Al3O36],"{""Ca"": 4.0, ""Mg"": 6.0, ""Al"": 9.0, ""O"": 40.0, ""Si"": 6.0, ""B"": 3.0}",1389.88,#FFFFFF,triclinic,{23},398.0
Sergeevite,Ca2Mg11(CO3)9(HCO3)4(OH)4·6H2O,"{""Ca"": 2.0, ""Mg"": 11.0, ""C"": 13.0, ""O"": 49.0, ""H"": 20.0}",1307.765,#FFFFFF,hexagonal,{47},1998.0
Sewardite,CaFe3+2(AsO4)2(OH)2,"{""Ca"": 1.0, ""Fe"": 2.0, ""As"": 2.0, ""O"": 10.0, ""H"": 2.0}",463.618,#556B2F,orthorhombic,{47},1998.0
Shabaite-(Nd),CaNd2(UO2)(CO3)4(OH)2·6H2O,"{""Ca"": 1.0, ""Nd"": 2.0, ""U"": 1.0, ""O"": 22.0, ""C"": 4.0, ""H"": 14.0}",980.722,#FFFFFF,monoclinic,{47},1998.0
Shabynite,Mg5(BO3)(OH)5Cl2·4H2O,"{""Mg"": 5.0, ""B"": 1.0, ""O"": 12.0, ""H"": 13.0, ""Cl"": 2.0}",408.327,#FFFFFF,unknown,{23},398.0
Shagamite,KFe11O17,"{""K"": 1.0, ""Fe"": 11.0, ""O"": 17.0}",925.376,#8B4513,hexagonal,{51},128.0
Shakhdaraite-(Y),ScYNb2O8,"{""Sc"": 1.0, ""Y"": 1.0, ""Nb"": 2.0, ""O"": 8.0}",447.666,#FFFFFF,monoclinic,{34},564.0
Shakhovite,Hg1+4Sb5+O3(OH)3,"{""Hg"": 4.0, ""Sb"": 1.0, ""O"": 6.0, ""H"": 3.0}",1023.138,#FFFFFF,monoclinic,"{47,57}",2047.0
Shandite,Ni3Pb2S2,"{""Ni"": 3.0, ""Pb"": 2.0, ""S"": 2.0}",654.599,#708090,hexagonal,{33},797.0
Shannonite,Pb2O(CO3),"{""Pb"": 2.0, ""O"": 4.0, ""C"": 1.0}",490.407,#FFFFFF,orthorhombic,"{47,55}",2262.0
Sharpite,Ca(UO2)3(CO3)4·3H2O,"{""Ca"": 1.0, ""U"": 3.0, ""O"": 21.0, ""C"": 4.0, ""H"": 6.0}",1144.239,#FFFFFF,orthorhombic,{47},1998.0
Sharyginite,Ca3TiFe2O8,"{""Ca"": 3.0, ""Ti"": 1.0, ""Fe"": 2.0, ""O"": 8.0}",407.783,#556B2F,orthorhombic,"{31,40,51}",803.0
Shasuite,CaNi3(P2O7)2,"{""Ca"": 1.0, ""Ni"": 3.0, ""P"": 4.0, ""O"": 14.0}",564.039,#FFFFFF,monoclinic,{51},128.0
Shattuckite,Cu5(SiO3)4(OH)2,"{""Cu"": 5.0, ""Si"": 4.0, ""O"": 14.0, ""H"": 2.0}",656.072,#FFFFFF,orthorhombic,{47},1998.0
Shcherbakovite,K2NaTi2O(OH)Si4O12,"{""K"": 2.0, ""Na"": 1.0, ""Ti"": 2.0, ""O"": 14.0, ""H"": 1.0, ""Si"": 4.0}",534.254,#FFFFFF,orthorhombic,"{7,35}",849.0
Shcherbinaite,V2O5,"{""V"": 2.0, ""O"": 5.0}",181.879,#FFFFFF,orthorhombic,"{45,47,55}",2686.0
Shchurovskyite,K2CaCu6O2(AsO4)4,"{""K"": 2.0, ""Ca"": 1.0, ""Cu"": 6.0, ""O"": 18.0, ""As"": 4.0}",1087.22,#FFFFFF,monoclinic,{45},424.0
Sheldrickite,NaCa3(CO3)2F3·H2O,"{""Na"": 1.0, ""Ca"": 3.0, ""C"": 2.0, ""O"": 7.0, ""F"": 3.0, ""H"": 2.0}",338.249,#FFFFFF,hexagonal,{35},726.0
Shenganfuite,PbTe4+3O5(OH)Cl3(H2O),"{""Pb"": 1.0, ""Te"": 3.0, ""O"": 7.0, ""H"": 3.0, ""Cl"": 3.0}",811.367,#FFFFFF,triclinic,{},1.0
Shenzhuangite,NiFeS2,"{""Ni"": 1.0, ""Fe"": 1.0, ""S"": 2.0}",178.658,#DAA520,tetragonal,{6},205.0
Shijiangshanite,Pb3CaAl(Si5O14)(OH)3·3H2O,"{""Pb"": 3.0, ""Ca"": 1.0, ""Al"": 1.0, ""Si"": 5.0, ""O"": 20.0, ""H"": 9.0}",1158.137,#FFFFFF,hexagonal,{},1.0
Shilovite,Cu(NH3)4(NO3)2,"{""Cu"": 1.0, ""N"": 6.0, ""H"": 12.0, ""O"": 6.0}",255.678,#FFFFFF,orthorhombic,{52},72.0
Shimazakiite,Ca2B2O5,"{""Ca"": 2.0, ""B"": 2.0, ""O"": 5.0}",181.771,#FFFFFF,orthorhombic,{23},398.0
Shinarumpite,[Co(H2O)6][(UO2)(SO4)2(H2O)]·4H2O,"{""Co"": 1.0, ""H"": 22.0, ""O"": 21.0, ""U"": 1.0, ""S"": 2.0}",719.238,#FFFFFF,monoclinic,{47},1998.0
Shinichengite,Ca5[BSi2O7(OH)2]2·6H2O,"{""Ca"": 5.0, ""B"": 2.0, ""Si"": 4.0, ""O"": 24.0, ""H"": 16.0}",734.454,#FFFFFF,triclinic,{},1.0
Shiranuiite,Cu1+(Rh3+Rh4+)S4,"{""Cu"": 1.0, ""Rh"": 2.0, ""S"": 4.0}",397.606,#A9A9A9,cubic,{},1.0
Shirokshinite,K(Mg2Na)Si4O10F2,"{""K"": 1.0, ""Mg"": 2.0, ""Na"": 1.0, ""Si"": 4.0, ""O"": 10.0, ""F"": 2.0}",421.024,#FFFFFF,monoclinic,{35},726.0
Shkatulkalite,Na2Nb2Na3Ti(Si2O7)2O2(FO)(H2O)4(H2O)3,"{""Na"": 5.0, ""Nb"": 2.0, ""Ti"": 1.0, ""Si"": 4.0, ""O"": 24.0, ""F"": 1.0, ""H"": 14.0}",878.055,#FFFFFF,monoclinic,{35},726.0
Shlykovite,KCa[Si4O9(OH)]·3H2O,"{""K"": 1.0, ""Ca"": 1.0, ""Si"": 4.0, ""O"": 13.0, ""H"": 7.0}",406.559,#FFFFFF,monoclinic,{35},726.0
Shojiite,Na(NaMg)Mg5Si8O22(OH)2,"{""Na"": 2.0, ""Mg"": 6.0, ""Si"": 8.0, ""O"": 24.0, ""H"": 2.0}",802.482,#FFFFFF,monoclinic,{},1.0
Shomiokite-(Y),Na3Y(CO3)3·3H2O,"{""Na"": 3.0, ""Y"": 1.0, ""C"": 3.0, ""O"": 12.0, ""H"": 6.0}",391.945,#FFFFFF,orthorhombic,{35},726.0
Shortite,Na2Ca2(CO3)3,"{""Na"": 2.0, ""Ca"": 2.0, ""C"": 3.0, ""O"": 9.0}",306.16,#FFFFFF,orthorhombic,"{7,24,35,36}",1214.0
Shuangfengite,IrTe2,"{""Ir"": 1.0, ""Te"": 2.0}",447.42,#FFFFFF,hexagonal,{33},797.0
Shubnikovite,Ca2Cu8(AsO4)6Cl(OH)·7H2O (?),"{""Ca"": 2.0, ""Cu"": 8.0, ""As"": 6.0, ""O"": 32.0, ""Cl"": 1.0, ""H"": 15.0}",1600.594,#FFFFFF,unknown,{47},1998.0
Shuiskite-(Cr),Ca2CrCr2[SiO4][Si2O6(OH)](OH)2O,"{""Ca"": 2.0, ""Cr"": 3.0, ""Si"": 3.0, ""O"": 14.0, ""H"": 3.0}",547.409,#FFFFFF,monoclinic,"{7,23,47}",2519.0
Shuiskite-(Mg),Ca2MgCr2(Si2O7)(SiO4)(OH)2·H2O,"{""Ca"": 2.0, ""Mg"": 1.0, ""Cr"": 2.0, ""Si"": 3.0, ""O"": 14.0, ""H"": 4.0}",520.726,#FFFFFF,monoclinic,"{7,23}",521.0
Shulamitite,Ca3TiFe3+AlO8,"{""Ca"": 3.0, ""Ti"": 1.0, ""Fe"": 1.0, ""Al"": 1.0, ""O"": 8.0}",378.92,#556B2F,orthorhombic,{51},128.0
Shumwayite,[(UO2)(SO4)(H2O)2]2·H2O,"{""U"": 2.0, ""O"": 17.0, ""S"": 2.0, ""H"": 10.0}",822.243,#FFFFFF,monoclinic,{47},1998.0
Shuvalovite,K2(Ca2Na)(SO4)3F,"{""K"": 2.0, ""Ca"": 2.0, ""Na"": 1.0, ""S"": 3.0, ""O"": 12.0, ""F"": 1.0}",488.508,#FFFFFF,orthorhombic,{45},424.0
Sibirskite,CaH(BO3),"{""Ca"": 1.0, ""H"": 1.0, ""B"": 1.0, ""O"": 3.0}",99.893,#FFFFFF,monoclinic,{23},398.0
Siderite,Fe(CO3),"{""Fe"": 1.0, ""C"": 1.0, ""O"": 3.0}",115.853,#8B4513,hexagonal,"{17,21,22,23,24,31,36,44,47,50,53,55}",4159.0
Sideronatrite,Na2Fe3+(SO4)2(OH)·3H2O,"{""Na"": 2.0, ""Fe"": 1.0, ""S"": 2.0, ""O"": 12.0, ""H"": 7.0}",364.989,#556B2F,orthorhombic,{47},1998.0
Siderophyllite,KFe2+2Al(Si2Al2)O10(OH)2,"{""K"": 1.0, ""Fe"": 2.0, ""Al"": 3.0, ""Si"": 2.0, ""O"": 12.0, ""H"": 2.0}",481.908,#556B2F,hexagonal,"{8,9,19,20,31,34,35,40}",2373.0
Siderotil,Fe(SO4)·5H2O,"{""Fe"": 1.0, ""S"": 1.0, ""O"": 9.0, ""H"": 10.0}",241.976,#556B2F,triclinic,"{45,47,50,54,55}",3193.0
Sidorovite,PtFe3,"{""Pt"": 1.0, ""Fe"": 3.0}",362.615,#8B4513,cubic,{},1.0
Sidpietersite,Pb2+4(S2O3)O2(OH)2,"{""Pb"": 4.0, ""S"": 2.0, ""O"": 7.0, ""H"": 2.0}",1006.929,#FFFFFF,triclinic,"{47,56}",2141.0
Sidwillite,MoO3·2H2O,"{""Mo"": 1.0, ""O"": 5.0, ""H"": 4.0}",179.977,#FFFFFF,monoclinic,{47},1998.0
Siegenite,CoNi2S4,"{""Co"": 1.0, ""Ni"": 2.0, ""S"": 4.0}",304.559,#A9A9A9,cubic,{12},129.0
Sieleckiite,Cu3Al4(PO4)2(OH)12·2H2O,"{""Cu"": 3.0, ""Al"": 4.0, ""P"": 2.0, ""O"": 22.0, ""H"": 16.0}",728.62,#FFFFFF,triclinic,{47},1998.0
Sigismundite,BaFe2+(CaNa2)Fe2+13Al(PO4)11(PO3OH)(OH)2,"{""Ba"": 1.0, ""Fe"": 14.0, ""Ca"": 1.0, ""Na"": 2.0, ""Al"": 1.0, ""P"": 12.0, ""O"": 50.0, ""H"": 3.0}",2206.862,#556B2F,monoclinic,{34},564.0
Sigloite,Fe3+Al2(PO4)2(OH)3·7H2O,"{""Fe"": 1.0, ""Al"": 2.0, ""P"": 2.0, ""O"": 18.0, ""H"": 17.0}",476.875,#556B2F,triclinic,"{31,47}",2354.0
Siidraite,Pb2Cu(OH)2I3,"{""Pb"": 2.0, ""Cu"": 1.0, ""O"": 2.0, ""H"": 2.0, ""I"": 3.0}",892.66,#FFFFFF,orthorhombic,{47},1998.0
Silhydrite,Si3O6·H2O,"{""Si"": 3.0, ""O"": 7.0, ""H"": 2.0}",198.264,#FFFFFF,orthorhombic,{48},71.0
Silicocarnotite,Ca5[(PO4)(SiO4)](PO4),"{""Ca"": 5.0, ""P"": 2.0, ""O"": 12.0, ""Si"": 1.0}",482.411,#FFFFFF,orthorhombic,{51},128.0
Silicon,Si,"{""Si"": 1.0}",28.085,#FFFFFF,orthorhombic,"{26,29,33,36,38,50}",1726.0
Silinaite,NaLiSi2O5·2H2O,"{""Na"": 1.0, ""Li"": 1.0, ""Si"": 2.0, ""O"": 7.0, ""H"": 4.0}",202.125,#FFFFFF,monoclinic,{9},127.0
Sillenite,Bi12SiO20,"{""Bi"": 12.0, ""Si"": 1.0, ""O"": 20.0}",2855.825,#D2B48C,cubic,"{26,34}",814.0
Sillimanite,Al2SiO5,"{""Al"": 2.0, ""Si"": 1.0, ""O"": 5.0}",162.044,#FFFFFF,orthorhombic,"{26,36,38,40}",968.0
Silver,Ag,"{""Ag"": 1.0}",107.87,#C0C0C0,hexagonal,"{7,33,36,38,47}",3317.0
Silvialite,Ca4Al6Si6O24(SO4),"{""Ca"": 4.0, ""Al"": 6.0, ""Si"": 6.0, ""O"": 28.0, ""S"": 1.0}",970.746,#FFFFFF,tetragonal,"{16,23,25,31,34,40}",1930.0
Simferite,LiMg(PO4),"{""Li"": 1.0, ""Mg"": 1.0, ""P"": 1.0, ""O"": 4.0}",126.215,#FFFFFF,orthorhombic,{34},564.0
Simmonsite,Na2LiAlF6,"{""Na"": 2.0, ""Li"": 1.0, ""Al"": 1.0, ""F"": 6.0}",193.89,#FFFFFF,monoclinic,{22},247.0
Simonellite,C19H24,"{""C"": 19.0, ""H"": 24.0}",252.401,#FFFFFF,orthorhombic,{50},273.0
Simonite,TlHgAs3S6,"{""Tl"": 1.0, ""Hg"": 1.0, ""As"": 3.0, ""S"": 6.0}",822.096,#FFD700,monoclinic,{33},797.0
Simplotite,CaV4+4O9·5H2O,"{""Ca"": 1.0, ""V"": 4.0, ""O"": 14.0, ""H"": 10.0}",477.912,#FFFFFF,monoclinic,"{47,53}",2115.0
Simpsonite,Al4Ta3O13(OH),"{""Al"": 4.0, ""Ta"": 3.0, ""O"": 14.0, ""H"": 1.0}",875.772,#FFFFFF,hexagonal,{34},564.0
Sincosite,Ca(VO)2(PO4)2·4H2O,"{""Ca"": 1.0, ""V"": 2.0, ""O"": 14.0, ""P"": 2.0, ""H"": 8.0}",435.96,#FFFFFF,triclinic,"{47,50}",2271.0
Sinhalite,MgAl(BO4),"{""Mg"": 1.0, ""Al"": 1.0, ""B"": 1.0, ""O"": 4.0}",126.093,#FFFFFF,orthorhombic,{23},398.0
Sinjarite,CaCl2·2H2O,"{""Ca"": 1.0, ""Cl"": 2.0, ""H"": 4.0, ""O"": 2.0}",147.008,#FFFFFF,orthorhombic,"{25,50,54}",717.0
Sinnerite,Cu6As4S9,"{""Cu"": 6.0, ""As"": 4.0, ""S"": 9.0}",969.504,#FFD700,triclinic,{33},797.0
Sinoite,Si2N2O,"{""Si"": 2.0, ""N"": 2.0, ""O"": 1.0}",100.183,#FFFFFF,orthorhombic,"{4,5}",141.0
Sitinakite,KNa2Ti4Si2O13(OH)·4H2O,"{""K"": 1.0, ""Na"": 2.0, ""Ti"": 4.0, ""Si"": 2.0, ""O"": 18.0, ""H"": 9.0}",629.77,#FFFFFF,tetragonal,{22},247.0
Siwaqaite,Ca6Al2(CrO4)3(OH)12·26H2O,"{""Ca"": 6.0, ""Al"": 2.0, ""Cr"": 3.0, ""O"": 50.0, ""H"": 64.0}",1314.882,#FFFFFF,hexagonal,{47},1998.0
Skachaite,CaCo(CO3)2,"{""Ca"": 1.0, ""Co"": 1.0, ""C"": 2.0, ""O"": 6.0}",219.027,#FFFFFF,hexagonal,{},1.0
Skaergaardite,PdCu,"{""Pd"": 1.0, ""Cu"": 1.0}",169.966,#00BFFF,cubic,{37},135.0
Skinnerite,Cu3SbS3,"{""Cu"": 3.0, ""Sb"": 1.0, ""S"": 3.0}",408.578,#A9A9A9,monoclinic,{33},797.0
Skippenite,Bi2Se2Te,"{""Bi"": 2.0, ""Se"": 2.0, ""Te"": 1.0}",703.502,#D2B48C,hexagonal,{33},797.0
Sklodowskite,Mg(UO2)2(SiO3OH)2·6H2O,"{""Mg"": 1.0, ""U"": 2.0, ""O"": 18.0, ""Si"": 2.0, ""H"": 14.0}",858.629,#FFFFFF,monoclinic,{47},1998.0
Skutterudite,CoAs3,"{""Co"": 1.0, ""As"": 3.0}",283.699,#4169E1,cubic,"{33,36,38}",1196.0
Slavikite,(H3O)3Mg6Fe15(SO4)21(OH)18·98H2O,"{""H"": 223.0, ""O"": 203.0, ""Mg"": 6.0, ""Fe"": 15.0, ""S"": 21.0}",5129.346,#556B2F,hexagonal,{47},1998.0
Slavkovite,Cu13(AsO4)6(AsO3OH)4·23H2O,"{""Cu"": 13.0, ""As"": 10.0, ""O"": 63.0, ""H"": 50.0}",2633.655,#FFFFFF,triclinic,"{47,55}",2262.0
Slawsonite,Sr(Al2Si2O8),"{""Sr"": 1.0, ""Al"": 2.0, ""Si"": 2.0, ""O"": 8.0}",325.746,#FFFFFF,triclinic,"{31,32}",768.0
Slottaite,SrFe3+3(PO4)(SO4)(OH)6,"{""Sr"": 1.0, ""Fe"": 3.0, ""P"": 1.0, ""O"": 14.0, ""S"": 1.0, ""H"": 6.0}",548.223,#556B2F,hexagonal,{},1.0
Slyudyankaite,Na28Ca4(Si24Al24O96)(SO4)6(S6)1/3(CO2)·2H2O,"{""Na"": 28.0, ""Ca"": 4.0, ""Si"": 24.0, ""Al"": 24.0, ""O"": 124.0, ""S"": 12.0, ""C"": 1.0, ""H"": 4.0}",4510.279,#FFFFFF,triclinic,{35},726.0
Smamite,Ca2Sb(OH)4[H(AsO4)2]·6H2O,"{""Ca"": 2.0, ""Sb"": 1.0, ""O"": 18.0, ""H"": 17.0, ""As"": 2.0}",656.878,#FFFFFF,triclinic,{47},1998.0
Smirnite,Bi3+2Te4+O5,"{""Bi"": 2.0, ""Te"": 1.0, ""O"": 5.0}",625.555,#D2B48C,orthorhombic,{47},1998.0
Smithite,AgAsS2,"{""Ag"": 1.0, ""As"": 1.0, ""S"": 2.0}",246.912,#FFD700,monoclinic,{33},797.0
Smolyaninovite,Co3Fe3+2(AsO4)4·11H2O,"{""Co"": 3.0, ""Fe"": 2.0, ""As"": 4.0, ""O"": 27.0, ""H"": 22.0}",1042.326,#556B2F,orthorhombic,{47},1998.0
Smrkovecite,Bi2O(OH)(PO4),"{""Bi"": 2.0, ""O"": 6.0, ""H"": 1.0, ""P"": 1.0}",545.936,#FFFFFF,monoclinic,"{47,55}",2262.0
Sobolevskite,PdBi,"{""Pd"": 1.0, ""Bi"": 1.0}",315.4,#D2B48C,hexagonal,"{33,37}",932.0
Sodalite,Na4(Si3Al3)O12Cl,"{""Na"": 4.0, ""Si"": 3.0, ""Al"": 3.0, ""O"": 12.0, ""Cl"": 1.0}",484.599,#FFFFFF,cubic,"{9,31,35}",1209.0
Soddyite,(UO2)2(SiO4)(H2O)2,"{""U"": 2.0, ""O"": 10.0, ""Si"": 1.0, ""H"": 4.0}",668.167,#FFFFFF,orthorhombic,{47},1998.0
Sogdianite,KZr2Li3Si12O30,"{""K"": 1.0, ""Zr"": 2.0, ""Li"": 3.0, ""Si"": 12.0, ""O"": 30.0}",1059.356,#FFFFFF,hexagonal,"{19,32,35}",1281.0
Sohngeite,Ga(OH)3,"{""Ga"": 1.0, ""O"": 3.0, ""H"": 3.0}",120.744,#FFFFFF,orthorhombic,{47},1998.0
Sokolovaite,CsLi2AlSi4O10F2,"{""Cs"": 1.0, ""Li"": 2.0, ""Al"": 1.0, ""Si"": 4.0, ""O"": 10.0, ""F"": 2.0}",484.098,#FFFFFF,monoclinic,{34},564.0
Solongoite,Ca2B3O4(OH)4Cl,"{""Ca"": 2.0, ""B"": 3.0, ""O"": 8.0, ""H"": 4.0, ""Cl"": 1.0}",280.06,#FFFFFF,monoclinic,{23},398.0
Somersetite,Pb8O(OH)4(CO3)5,"{""Pb"": 8.0, ""O"": 20.0, ""H"": 4.0, ""C"": 5.0}",2041.667,#FFFFFF,hexagonal,{47},1998.0
Sonoraite,Fe3+(Te4+O3)(OH)·H2O,"{""Fe"": 1.0, ""Te"": 1.0, ""O"": 5.0, ""H"": 3.0}",266.464,#556B2F,monoclinic,{47},1998.0
Sopcheite,Ag4Pd3Te4,"{""Ag"": 4.0, ""Pd"": 3.0, ""Te"": 4.0}",1261.14,#C0C0C0,orthorhombic,"{33,37}",932.0
Sosedkoite,K5Al2Ta22O60,"{""K"": 5.0, ""Al"": 2.0, ""Ta"": 22.0, ""O"": 60.0}",5190.294,#FFFFFF,orthorhombic,{34},564.0
Souzalite,Mg3Al4(PO4)4(OH)6·2H2O,"{""Mg"": 3.0, ""Al"": 4.0, ""P"": 4.0, ""O"": 24.0, ""H"": 10.0}",698.795,#FFFFFF,triclinic,"{21,22,31}",682.0
Spadaite,MgSiO2(OH)2·H2O (?),"{""Mg"": 1.0, ""Si"": 1.0, ""O"": 5.0, ""H"": 4.0}",136.417,#FFFFFF,unknown,{35},726.0
Spaltiite,Tl2Cu2As2S5,"{""Tl"": 2.0, ""Cu"": 2.0, ""As"": 2.0, ""S"": 5.0}",845.996,#FFD700,monoclinic,{33},797.0
Spangolite,Cu6Al(SO4)(OH)12Cl·3H2O,"{""Cu"": 6.0, ""Al"": 1.0, ""S"": 1.0, ""O"": 19.0, ""H"": 18.0, ""Cl"": 1.0}",797.893,#FFFFFF,hexagonal,{47},1998.0
Sperrylite,PtAs2,"{""Pt"": 1.0, ""As"": 2.0}",344.924,#808080,cubic,"{6,33,36,37,38}",1536.0
Spertiniite,Cu(OH)2,"{""Cu"": 1.0, ""O"": 2.0, ""H"": 2.0}",97.56,#00BFFF,orthorhombic,"{47,56}",2141.0
Sphaerobertrandite,Be3(SiO4)(OH)2,"{""Be"": 3.0, ""Si"": 1.0, ""O"": 6.0, ""H"": 2.0}",153.1316,#FFFFFF,monoclinic,{35},726.0
Sphaerobismoite,Bi2O3,"{""Bi"": 2.0, ""O"": 3.0}",465.957,#D2B48C,tetragonal,"{47,55}",2262.0
Spheniscidite,(NH4)Fe3+2(PO4)2(OH)·2H2O,"{""N"": 1.0, ""H"": 9.0, ""Fe"": 2.0, ""P"": 2.0, ""O"": 11.0}",372.706,#556B2F,monoclinic,"{47,52}",2070.0
Spherocobaltite,Co(CO3),"{""Co"": 1.0, ""C"": 1.0, ""O"": 3.0}",118.941,#4169E1,hexagonal,{23},398.0
Spinel,MgAl2O4,"{""Mg"": 1.0, ""Al"": 2.0, ""O"": 4.0}",142.265,#FFFFFF,cubic,"{1,3,4,6,9,23,26,31,36,38,40}",2171.0
Spionkopite,Cu39S28,"{""Cu"": 39.0, ""S"": 28.0}",3375.974,#A9A9A9,unknown,"{6,12,15,33,47}",3161.0
Spodumene,LiAlSi2O6,"{""Li"": 1.0, ""Al"": 1.0, ""Si"": 2.0, ""O"": 6.0}",186.086,#FFFFFF,monoclinic,{34},564.0
Spriggite,Pb3(UO2)6O8(OH)2·3H2O,"{""Pb"": 3.0, ""U"": 6.0, ""O"": 25.0, ""H"": 8.0}",2457.819,#FFFFFF,monoclinic,{47},1998.0
Springcreekite,BaV3+3(PO4)(PO3OH)(OH)6,"{""Ba"": 1.0, ""V"": 3.0, ""P"": 2.0, ""O"": 14.0, ""H"": 7.0}",583.146,#FFFFFF,hexagonal,{22},247.0
Spurrite,Ca5(SiO4)2(CO3),"{""Ca"": 5.0, ""Si"": 2.0, ""O"": 11.0, ""C"": 1.0}",444.56,#FFFFFF,monoclinic,"{31,40,51}",803.0
Srebrodolskite,Ca2Fe3+2O5,"{""Ca"": 2.0, ""Fe"": 2.0, ""O"": 5.0}",271.841,#8B4513,orthorhombic,"{31,40,50,51,54,56}",1453.0
Sreinite,Pb(UO2)4(BiO)3(PO4)2(OH)7·4H2O,"{""Pb"": 1.0, ""U"": 4.0, ""O"": 30.0, ""Bi"": 3.0, ""P"": 2.0, ""H"": 15.0}",2343.298,#FFFFFF,cubic,{47},1998.0
Srilankite,TiO2,"{""Ti"": 1.0, ""O"": 2.0}",79.865,#FFFFFF,orthorhombic,{26},250.0
Stanevansite,Mg(C2H3O3)2·2H2O,"{""Mg"": 1.0, ""C"": 4.0, ""H"": 10.0, ""O"": 8.0}",210.421,#FFFFFF,monoclinic,{53},117.0
Stanfieldite,Ca4Mg5(PO4)6,"{""Ca"": 4.0, ""Mg"": 5.0, ""P"": 6.0, ""O"": 24.0}",851.657,#FFFFFF,monoclinic,"{5,56,57}",286.0
Stanleyite,V4+O(SO4)·6H2O,"{""V"": 1.0, ""O"": 11.0, ""S"": 1.0, ""H"": 12.0}",271.087,#FFFFFF,orthorhombic,"{45,47}",2422.0
Starkeyite,Mg(SO4)·4H2O,"{""Mg"": 1.0, ""S"": 1.0, ""O"": 8.0, ""H"": 8.0}",192.421,#FFFFFF,monoclinic,"{25,45,47,55}",2896.0
Starovaite,KCu5O(VO4)3,"{""K"": 1.0, ""Cu"": 5.0, ""O"": 13.0, ""V"": 3.0}",717.641,#FFFFFF,triclinic,{45},424.0
Staurolite,Fe2+2Al9Si4O23(OH),"{""Fe"": 2.0, ""Al"": 9.0, ""Si"": 4.0, ""O"": 24.0, ""H"": 1.0}",851.852,#556B2F,orthorhombic,"{26,40}",569.0
Steigerite,Al(VO4)·3H2O,"{""Al"": 1.0, ""V"": 1.0, ""O"": 7.0, ""H"": 6.0}",195.965,#FFFFFF,unknown,{47},1998.0
Steinhardtite,Al,"{""Al"": 1.0}",26.982,#FFFFFF,cubic,{6},205.0
Steiningerite,Ba2Zr2(Si4O12)O2,"{""Ba"": 2.0, ""Zr"": 2.0, ""Si"": 4.0, ""O"": 14.0}",793.434,#FFFFFF,tetragonal,{},1.0
Steklite,KAl(SO4)2,"{""K"": 1.0, ""Al"": 1.0, ""S"": 2.0, ""O"": 8.0}",258.192,#FFFFFF,hexagonal,"{45,54}",658.0
Stellerite,Ca4(Si28Al8)O72·28H2O,"{""Ca"": 4.0, ""Si"": 28.0, ""Al"": 8.0, ""O"": 100.0, ""H"": 56.0}",2818.896,#FFFFFF,monoclinic,{10},107.0
Stenhuggarite,CaFe3+Sb3+As3+2O7,"{""Ca"": 1.0, ""Fe"": 1.0, ""Sb"": 1.0, ""As"": 2.0, ""O"": 7.0}",479.52,#556B2F,tetragonal,{32},412.0
Stenonite,Sr2Al(CO3)F5,"{""Sr"": 2.0, ""Al"": 1.0, ""C"": 1.0, ""O"": 3.0, ""F"": 5.0}",357.22,#FFFFFF,monoclinic,{23},398.0
Stepanovite,NaMgFe3+(C2O4)3·9H2O,"{""Na"": 1.0, ""Mg"": 1.0, ""Fe"": 1.0, ""C"": 6.0, ""O"": 21.0, ""H"": 18.0}",529.329,#556B2F,hexagonal,{50},273.0
Stephanite,Ag5SbS4,"{""Ag"": 5.0, ""Sb"": 1.0, ""S"": 4.0}",789.35,#A9A9A9,orthorhombic,{33},797.0
Stepite,U(AsO3OH)2·4H2O,"{""U"": 1.0, ""As"": 2.0, ""O"": 12.0, ""H"": 10.0}",589.942,#FFFFFF,tetragonal,"{47,55}",2262.0
Stercorite,(NH4)Na(PO3OH)·4H2O,"{""N"": 1.0, ""H"": 13.0, ""Na"": 1.0, ""P"": 1.0, ""O"": 8.0}",209.067,#FFFFFF,triclinic,{52},72.0
Sternbergite,AgFe2S3,"{""Ag"": 1.0, ""Fe"": 2.0, ""S"": 3.0}",315.74,#DAA520,orthorhombic,{33},797.0
Steropesite,Tl3BiCl6,"{""Tl"": 3.0, ""Bi"": 1.0, ""Cl"": 6.0}",1034.82,#D2B48C,monoclinic,{45},424.0
Stetindite-(Ce),Ce(SiO4),"{""Ce"": 1.0, ""Si"": 1.0, ""O"": 4.0}",232.201,#FFFFFF,tetragonal,{34},564.0
Steverustite,Pb2+5(OH)5[Cu1+(S6+O3S2-)3](H2O)2,"{""Pb"": 5.0, ""O"": 16.0, ""H"": 9.0, ""Cu"": 1.0, ""S"": 6.0}",1556.962,#FFFFFF,monoclinic,{47},1998.0
Stibarsen,SbAs,"{""Sb"": 1.0, ""As"": 1.0}",196.682,#808080,hexagonal,"{33,34}",1361.0
Stibiconite,Sb3+Sb5+2O6(OH),"{""Sb"": 3.0, ""O"": 7.0, ""H"": 1.0}",478.281,#A9A9A9,cubic,{47},1998.0
Stibioclaudetite,AsSbO3,"{""As"": 1.0, ""Sb"": 1.0, ""O"": 3.0}",244.679,#808080,monoclinic,{47},1998.0
Stibiocolumbite,SbNbO4,"{""Sb"": 1.0, ""Nb"": 1.0, ""O"": 4.0}",278.662,#A9A9A9,orthorhombic,{34},564.0