name,formula,elements,density,color,crystal_system,dna
Tetrahedrite-(Cu),Cu6(Cu4Cu2)Sb4S13,"{""Cu"": 12.0, ""Sb"": 4.0, ""S"": 13.0}",1666.42,#A9A9A9,cubic,"{""system"": ""cubic"", ""scale"": [1.0, 1.0, 1.0], ""optical"": {""transparent"": 0, ""refraction"": 0.0, ""birefringence"": 0.0}}"
Tetrahedrite-(Fe),Cu6(Cu4Fe2)Sb4S13,"{""Cu"": 10.0, ""Fe"": 2.0, ""Sb"": 4.0, ""S"": 13.0}",1651.02,#DAA520,,"{""system"": """", ""scale"": [1.0, 1.0, 1.0], ""optical"": {""transparent"": 0, ""refraction"": 0.0, ""birefringence"": 0.0}}"
Tetrahedrite-(Hg),Cu6(Cu4Hg2)Sb4S13,"{""Cu"": 10.0, ""Hg"": 2.0, ""Sb"": 4.0, ""S"": 13.0}",1940.5,#A9A9A9,cubic,"{""system"": ""cubic"", ""scale"": [1.0, 1.0, 1.0], ""optical"": {""transparent"": 0, ""refraction"": 0.0, ""birefringence"": 0.0}}"
Tetrahedrite-(Ni),Cu6(Cu4Ni2)Sb4S13,"{""Cu"": 10.0, ""Ni"": 2.0, ""Sb"": 4.0, ""S"": 13.0}",1656.7,#A9A9A9,cubic,"{""system"": ""cubic"", ""scale"": [1.0, 1.0, 1.0], ""optical"": {""transparent"": 0, ""refraction"": 0.0, ""birefringence"": 0.0}}"
Tetrarooseveltite,Bi(AsO4),"{""Bi"": 1.0, ""As"": 1.0, ""O"": 4.0}",347.9,#808080,tetragonal,"{""system"": ""tetragonal"", ""scale"": [1.0, 1.0, 1.4], ""optical"": {""transparent"": 0, ""refraction"": 0.0, ""birefringence"": 0.0}}"
Tetrataenite,FeNi,"{""Fe"": 1.0, ""Ni"": 1.0}",114.54,#7FFF00,monoclinic,"{""system"": ""monoclinic"", ""scale"": [0.7, 1.0, 1.3], ""optical"": {""transparent"": 0, ""refraction"": 0.0, ""birefringence"": 0.0}}"
Thalenite-(Y),Y3Si3O10F,"{""Y"": 3.0, ""Si"": 3.0, ""O"": 10.0, ""F"": 1.0}",530.0,#FFFFFF,monoclinic,"{""system"": ""monoclinic"", ""scale"": [0.7, 1.0, 1.3], ""optical"": {""transparent"": 1, ""refraction"": 1.5, ""birefringence"": 0.01}}"
Thalhammerite,Pd9Ag2Bi2S4,"{""Pd"": 9.0, ""Ag"": 2.0, ""Bi"": 2.0, ""S"": 4.0}",1719.72,#A9A9A9,tetragonal,"{""system"": ""tetragonal"", ""scale"": [1.0, 1.0, 1.4], ""optical"": {""transparent"": 0, ""refraction"": 0.0, ""birefringence"": 0.0}}"
Thalliumpharmacosiderite,TlFe4[(AsO4)3(OH)4]·4H2O,"{""Tl"": 1.0, ""Fe"": 4.0, ""As"": 3.0, ""O"": 20.0, ""H"": 12.0}",984.64,#556B2F,cubic,"{""system"": ""cubic"", ""scale"": [1.0, 1.0, 1.0], ""optical"": {""transparent"": 0, ""refraction"": 0.0, ""birefringence"": 0.0}}"
Thaumasite,Ca3Si(OH)6(CO3)(SO4)·12H2O,"{""Ca"": 3.0, ""Si"": 1.0, ""O"": 25.0, ""H"": 30.0, ""C"": 1.0, ""S"": 1.0}",622.64,#FFFFFF,hexagonal,"{""system"": ""hexagonal"", ""scale"": [1.0, 1.0, 1.6], ""optical"": {""transparent"": 1, ""refraction"": 1.5, ""birefringence"": 0.01}}"
Thebaite-(NH4),(NH4)3Al(C2O4)(PO3OH)2(H2O),"{""N"": 3.0, ""H"": 16.0, ""Al"": 1.0, ""C"": 2.0, ""O"": 13.0, ""P"": 2.0}",379.1,#FFFFFF,monoclinic,"{""system"": ""monoclinic"", ""scale"": [0.7, 1.0, 1.3], ""optical"": {""transparent"": 1, ""refraction"": 1.5, ""birefringence"": 0.01}}"
Thenardite,Na2(SO4),"{""Na"": 2.0, ""S"": 1.0, ""O"": 4.0}",142.04,#FFFF00,orthorhombic,"{""system"": ""orthorhombic"", ""scale"": [0.8, 1.0, 1.2], ""optical"": {""transparent"": 0, ""refraction"": 0.0, ""birefringence"": 0.0}}"
Theoparacelsite,Cu3(OH)2As2O7,"{""Cu"": 3.0, ""O"": 9.0, ""H"": 2.0, ""As"": 2.0}",486.51,#FFFFFF,orthorhombic,"{""system"": ""orthorhombic"", ""scale"": [0.8, 1.0, 1.2], ""optical"": {""transparent"": 1, ""refraction"": 1.5, ""birefringence"": 0.01}}"
Theophrastite,Ni(OH)2,"{""Ni"": 1.0, ""O"": 2.0, ""H"": 2.0}",92.71,#7FFF00,hexagonal,"{""system"": ""hexagonal"", ""scale"": [1.0, 1.0, 1.6], ""optical"": {""transparent"": 0, ""refraction"": 0.0, ""birefringence"": 0.0}}"
Therasiaite,(NH4)3KNa2Fe2+Fe3+(SO4)3Cl5,"{""N"": 3.0, ""H"": 12.0, ""K"": 1.0, ""Na"": 2.0, ""Fe"": 2.0, ""S"": 3.0, ""O"": 12.0, ""Cl"": 5.0}",716.34,#556B2F,monoclinic,"{""system"": ""monoclinic"", ""scale"": [0.7, 1.0, 1.3], ""optical"": {""transparent"": 0, ""refraction"": 0.0, ""birefringence"": 0.0}}"
Theresemagnanite,NaCo4(SO4)(OH)6Cl·6H2O,"{""Na"": 1.0, ""Co"": 4.0, ""S"": 1.0, ""O"": 16.0, ""H"": 18.0, ""Cl"": 1.0}",600.36,#FFFFFF,hexagonal,"{""system"": ""hexagonal"", ""scale"": [1.0, 1.0, 1.6], ""optical"": {""transparent"": 1, ""refraction"": 1.5, ""birefringence"": 0.01}}"
Thermaerogenite,CuAl2O4,"{""Cu"": 1.0, ""Al"": 2.0, ""O"": 4.0}",181.51,#00BFFF,cubic,"{""system"": ""cubic"", ""scale"": [1.0, 1.0, 1.0], ""optical"": {""transparent"": 0, ""refraction"": 0.0, ""birefringence"": 0.0}}"
Thermessaite,K2AlF3(SO4),"{""K"": 2.0, ""Al"": 1.0, ""F"": 3.0, ""S"": 1.0, ""O"": 4.0}",258.24,#FFFFFF,orthorhombic,"{""system"": ""orthorhombic"", ""scale"": [0.8, 1.0, 1.2], ""optical"": {""transparent"": 1, ""refraction"": 1.5, ""birefringence"": 0.01}}"
Thermessaite-(NH4),(NH4)2AlF3(SO4),"{""N"": 2.0, ""H"": 8.0, ""Al"": 1.0, ""F"": 3.0, ""S"": 1.0, ""O"": 4.0}",216.12,#FFFFFF,orthorhombic,"{""system"": ""orthorhombic"", ""scale"": [0.8, 1.0, 1.2], ""optical"": {""transparent"": 1, ""refraction"": 1.5, ""birefringence"": 0.01}}"
Thermonatrite,Na2(CO3)·H2O,"{""Na"": 2.0, ""C"": 1.0, ""O"": 4.0, ""H"": 2.0}",124.01,#FFFFFF,orthorhombic,"{""system"": ""orthorhombic"", ""scale"": [0.8, 1.0, 1.2], ""optical"": {""transparent"": 1, ""refraction"": 1.5, ""birefringence"": 0.01}}"
Theuerdankite,Ag3(AsO4),"{""Ag"": 3.0, ""As"": 1.0, ""O"": 4.0}",462.53,#C0C0C0,cubic,"{""system"": ""cubic"", ""scale"": [1.0, 1.0, 1.0], ""optical"": {""transparent"": 0, ""refraction"": 0.0, ""birefringence"": 0.0}}"
Thionasilite,Na2Si2S2O3,"{""Na"": 2.0, ""Si"": 2.0, ""S"": 2.0, ""O"": 3.0}",214.28,#FFFFFF,orthorhombic,"{""system"": ""orthorhombic"", ""scale"": [0.8, 1.0, 1.2], ""optical"": {""transparent"": 1, ""refraction"": 1.5, ""birefringence"": 0.01}}"
Thomasclarkite-(Y),NaY(HCO3)(OH)3·4H2O,"{""Na"": 1.0, ""Y"": 1.0, ""H"": 12.0, ""C"": 1.0, ""O"": 10.0}",296.01,#FFFFFF,monoclinic,"{""system"": ""monoclinic"", ""scale"": [0.7, 1.0, 1.3], ""optical"": {""transparent"": 1, ""refraction"": 1.5, ""birefringence"": 0.01}}"
Thometzekite,PbCu2+2(AsO4)2·2H2O,"{""Pb"": 1.0, ""Cu"": 2.0, ""As"": 2.0, ""O"": 10.0, ""H"": 4.0}",648.17,#FFFFFF,monoclinic,"{""system"": ""monoclinic"", ""scale"": [0.7, 1.0, 1.3], ""optical"": {""transparent"": 1, ""refraction"": 1.5, ""birefringence"": 0.01}}"
Thomsenolite,NaCaAlF6·H2O,"{""Na"": 1.0, ""Ca"": 1.0, ""Al"": 1.0, ""F"": 6.0, ""H"": 2.0, ""O"": 1.0}",222.07,#FFFFFF,monoclinic,"{""system"": ""monoclinic"", ""scale"": [0.7, 1.0, 1.3], ""optical"": {""transparent"": 1, ""refraction"": 1.5, ""birefringence"": 0.01}}"
Thomsonite-Ca,NaCa2(Al5Si5)O20·6H2O,"{""Na"": 1.0, ""Ca"": 2.0, ""Al"": 5.0, ""Si"": 5.0, ""O"": 26.0, ""H"": 12.0}",806.6,#FFFFFF,orthorhombic,"{""system"": ""orthorhombic"", ""scale"": [0.8, 1.0, 1.2], ""optical"": {""transparent"": 1, ""refraction"": 1.5, ""birefringence"": 0.01}}"
Thomsonite-Sr,NaSr2(Al5Si5)O20·6-7H2O,"{""Na"": 1.0, ""Sr"": 2.0, ""Al"": 5.0, ""Si"": 5.0, ""O"": 27.0, ""H"": 14.0}",919.69,#FFFFFF,orthorhombic,"{""system"": ""orthorhombic"", ""scale"": [0.8, 1.0, 1.2], ""optical"": {""transparent"": 1, ""refraction"": 1.5, ""birefringence"": 0.01}}"
Thorasphite,Th2H(AsO4)2(PO4)·6H2O,"{""Th"": 2.0, ""H"": 13.0, ""As"": 2.0, ""O"": 18.0, ""P"": 1.0}",945.99,#FFFFFF,orthorhombic,"{""system"": ""orthorhombic"", ""scale"": [0.8, 1.0, 1.2], ""optical"": {""transparent"": 1, ""refraction"": 1.5, ""birefringence"": 0.01}}"
Thorbastnasite,ThCa(CO3)2F2·3H2O,"{""Th"": 1.0, ""Ca"": 1.0, ""C"": 2.0, ""O"": 9.0, ""F"": 2.0, ""H"": 6.0}",484.19,#FFFFFF,hexagonal,"{""system"": ""hexagonal"", ""scale"": [1.0, 1.0, 1.6], ""optical"": {""transparent"": 1, ""refraction"": 1.5, ""birefringence"": 0.01}}"
Thorianite,ThO2,"{""Th"": 1.0, ""O"": 2.0}",264.04,#FFFFFF,cubic,"{""system"": ""cubic"", ""scale"": [1.0, 1.0, 1.0], ""optical"": {""transparent"": 1, ""refraction"": 1.5, ""birefringence"": 0.0}}"
Thorikosite,Pb3O3Sb3+(OH)Cl2,"{""Pb"": 3.0, ""O"": 4.0, ""Sb"": 1.0, ""H"": 1.0, ""Cl"": 2.0}",879.27,#FFFFFF,tetragonal,"{""system"": ""tetragonal"", ""scale"": [1.0, 1.0, 1.4], ""optical"": {""transparent"": 1, ""refraction"": 1.5, ""birefringence"": 0.01}}"
Thorite,Th(SiO4),"{""Th"": 1.0, ""Si"": 1.0, ""O"": 4.0}",324.13,#FFFFFF,tetragonal,"{""system"": ""tetragonal"", ""scale"": [1.0, 1.0, 1.4], ""optical"": {""transparent"": 1, ""refraction"": 1.5, ""birefringence"": 0.01}}"
Thornasite,Na12Th3(Si8O19)4·18H2O,"{""Na"": 12.0, ""Th"": 3.0, ""Si"": 32.0, ""O"": 94.0, ""H"": 36.0}",3411.17,#FFFFFF,hexagonal,"{""system"": ""hexagonal"", ""scale"": [1.0, 1.0, 1.6], ""optical"": {""transparent"": 1, ""refraction"": 1.5, ""birefringence"": 0.01}}"
Thorneite,Pb6(Te2O10)(CO3)Cl2(H2O),"{""Pb"": 6.0, ""Te"": 2.0, ""O"": 14.0, ""C"": 1.0, ""Cl"": 2.0, ""H"": 2.0}",1807.33,#FFFFFF,monoclinic,"{""system"": ""monoclinic"", ""scale"": [0.7, 1.0, 1.3], ""optical"": {""transparent"": 1, ""refraction"": 1.5, ""birefringence"": 0.01}}"
Thortveitite,Sc2Si2O7,"{""Sc"": 2.0, ""Si"": 2.0, ""O"": 7.0}",258.1,#FFFFFF,monoclinic,"{""system"": ""monoclinic"", ""scale"": [0.7, 1.0, 1.3], ""optical"": {""transparent"": 1, ""refraction"": 1.5, ""birefringence"": 0.01}}"
Threadgoldite,Al(UO2)2(PO4)2(OH)·8H2O,"{""Al"": 1.0, ""U"": 2.0, ""O"": 21.0, ""P"": 2.0, ""H"": 17.0}",918.12,#FFFFFF,monoclinic,"{""system"": ""monoclinic"", ""scale"": [0.7, 1.0, 1.3], ""optical"": {""transparent"": 1, ""refraction"": 1.5, ""birefringence"": 0.01}}"
Thunderbayite,TlAg3Au3Sb7S6,"{""Tl"": 1.0, ""Ag"": 3.0, ""Au"": 3.0, ""Sb"": 7.0, ""S"": 6.0}",2163.58,#A9A9A9,triclinic,"{""system"": ""triclinic"", ""scale"": [0.7, 1.0, 1.3], ""optical"": {""transparent"": 0, ""refraction"": 0.0, ""birefringence"": 0.0}}"
Tianhongqiite,CrTiO3(OH),"{""Cr"": 1.0, ""Ti"": 1.0, ""O"": 4.0, ""H"": 1.0}",164.88,#FFFFFF,monoclinic,"{""system"": ""monoclinic"", ""scale"": [0.7, 1.0, 1.3], ""optical"": {""transparent"": 1, ""refraction"": 1.5, ""birefringence"": 0.01}}"
Tianhuixinite,(MoO3)3·H2O,"{""Mo"": 3.0, ""O"": 10.0, ""H"": 2.0}",449.87,#FFFFFF,hexagonal,"{""system"": ""hexagonal"", ""scale"": [1.0, 1.0, 1.6], ""optical"": {""transparent"": 1, ""refraction"": 1.5, ""birefringence"": 0.01}}"
Tiemannite,HgSe,"{""Hg"": 1.0, ""Se"": 1.0}",279.55,#FFFFFF,cubic,"{""system"": ""cubic"", ""scale"": [1.0, 1.0, 1.0], ""optical"": {""transparent"": 1, ""refraction"": 1.5, ""birefringence"": 0.0}}"
Tiettaite,K4Na12Fe3+2Si16O41(OH)4·2H2O,"{""K"": 4.0, ""Na"": 12.0, ""Fe"": 2.0, ""Si"": 16.0, ""O"": 47.0, ""H"": 8.0}",1753.48,#556B2F,orthorhombic,"{""system"": ""orthorhombic"", ""scale"": [0.8, 1.0, 1.2], ""optical"": {""transparent"": 0, ""refraction"": 0.0, ""birefringence"": 0.0}}"
Tikhonenkovite,SrAlF4(OH)·H2O,"{""Sr"": 1.0, ""Al"": 1.0, ""F"": 4.0, ""O"": 2.0, ""H"": 3.0}",225.62,#FFFFFF,monoclinic,"{""system"": ""monoclinic"", ""scale"": [0.7, 1.0, 1.3], ""optical"": {""transparent"": 1, ""refraction"": 1.5, ""birefringence"": 0.01}}"
Tilasite,CaMg(AsO4)F,"{""Ca"": 1.0, ""Mg"": 1.0, ""As"": 1.0, ""O"": 4.0, ""F"": 1.0}",222.31,#FFFFFF,monoclinic,"{""system"": ""monoclinic"", ""scale"": [0.7, 1.0, 1.3], ""optical"": {""transparent"": 1, ""refraction"": 1.5, ""birefringence"": 0.01}}"
Tilkerodeite,Pd2HgSe3,"{""Pd"": 2.0, ""Hg"": 1.0, ""Se"": 3.0}",650.31,#FFFFFF,hexagonal,"{""system"": ""hexagonal"", ""scale"": [1.0, 1.0, 1.6], ""optical"": {""transparent"": 1, ""refraction"": 1.5, ""birefringence"": 0.01}}"
Tilleyite,Ca5Si2O7(CO3)2,"{""Ca"": 5.0, ""Si"": 2.0, ""O"": 13.0, ""C"": 2.0}",488.6,#FFFFFF,monoclinic,"{""system"": ""monoclinic"", ""scale"": [0.7, 1.0, 1.3], ""optical"": {""transparent"": 1, ""refraction"": 1.5, ""birefringence"": 0.01}}"
Tillmannsite,HgAg3(VO4),"{""Hg"": 1.0, ""Ag"": 3.0, ""V"": 1.0, ""O"": 4.0}",639.14,#FFFFFF,tetragonal,"{""system"": ""tetragonal"", ""scale"": [1.0, 1.0, 1.4], ""optical"": {""transparent"": 1, ""refraction"": 1.5, ""birefringence"": 0.01}}"
Timroseite,Pb2Cu5(TeO6)2(OH)2,"{""Pb"": 2.0, ""Cu"": 5.0, ""Te"": 2.0, ""O"": 14.0, ""H"": 2.0}",1213.37,#FFFFFF,orthorhombic,"{""system"": ""orthorhombic"", ""scale"": [0.8, 1.0, 1.2], ""optical"": {""transparent"": 1, ""refraction"": 1.5, ""birefringence"": 0.01}}"
Tinaksite,K2NaCa2TiSi7O18(OH)O,"{""K"": 2.0, ""Na"": 1.0, ""Ca"": 2.0, ""Ti"": 1.0, ""Si"": 7.0, ""O"": 20.0, ""H"": 1.0}",746.86,#FFFFFF,triclinic,"{""system"": ""triclinic"", ""scale"": [0.7, 1.0, 1.3], ""optical"": {""transparent"": 1, ""refraction"": 1.5, ""birefringence"": 0.01}}"
Tincalconite,Na2B4O5(OH)4·3H2O,"{""Na"": 2.0, ""B"": 4.0, ""O"": 12.0, ""H"": 10.0}",291.3,#FFFFFF,hexagonal,"{""system"": ""hexagonal"", ""scale"": [1.0, 1.0, 1.6], ""optical"": {""transparent"": 1, ""refraction"": 1.5, ""birefringence"": 0.01}}"
Tinnunculite,C5H4N4O3·2H2O,"{""C"": 5.0, ""H"": 8.0, ""N"": 4.0, ""O"": 5.0}",204.15,#FFFFFF,monoclinic,"{""system"": ""monoclinic"", ""scale"": [0.7, 1.0, 1.3], ""optical"": {""transparent"": 1, ""refraction"": 1.5, ""birefringence"": 0.01}}"
Tinsleyite,KAl2(PO4)2(OH)·2H2O,"{""K"": 1.0, ""Al"": 2.0, ""P"": 2.0, ""O"": 11.0, ""H"": 5.0}",336.04,#FFFFFF,monoclinic,"{""system"": ""monoclinic"", ""scale"": [0.7, 1.0, 1.3], ""optical"": {""transparent"": 1, ""refraction"": 1.5, ""birefringence"": 0.01}}"
Tinticite,Fe3+3(PO4)2(OH)3·3H2O,"{""Fe"": 3.0, ""P"": 2.0, ""O"": 14.0, ""H"": 9.0}",462.56,#556B2F,triclinic,"{""system"": ""triclinic"", ""scale"": [0.7, 1.0, 1.3], ""optical"": {""transparent"": 0, ""refraction"": 0.0, ""birefringence"": 0.0}}"
Tintinaite,Pb10Cu2Sb16S35,"{""Pb"": 10.0, ""Cu"": 2.0, ""Sb"": 16.0, ""S"": 35.0}",5269.36,#708090,orthorhombic,"{""system"": ""orthorhombic"", ""scale"": [0.8, 1.0, 1.2], ""optical"": {""transparent"": 0, ""refraction"": 0.0, ""birefringence"": 0.0}}"
Tischendorfite,Pd8Hg3Se9,"{""Pd"": 8.0, ""Hg"": 3.0, ""Se"": 9.0}",2163.77,#FFFFFF,orthorhombic,"{""system"": ""orthorhombic"", ""scale"": [0.8, 1.0, 1.2], ""optical"": {""transparent"": 1, ""refraction"": 1.5, ""birefringence"": 0.01}}"
Tistarite,Ti2O3,"{""Ti"": 2.0, ""O"": 3.0}",143.74,#FFFFFF,hexagonal,"{""system"": ""hexagonal"", ""scale"": [1.0, 1.0, 1.6], ""optical"": {""transparent"": 1, ""refraction"": 1.5, ""birefringence"": 0.01}}"
Titanite,CaTi(SiO4)O,"{""Ca"": 1.0, ""Ti"": 1.0, ""Si"": 1.0, ""O"": 5.0}",196.04,#FFFFFF,monoclinic,"{""system"": ""monoclinic"", ""scale"": [0.7, 1.0, 1.3], ""optical"": {""transparent"": 1, ""refraction"": 1.5, ""birefringence"": 0.01}}"
Titanium,Ti,"{""Ti"": 1.0}",47.87,#FFFFFF,cubic,"{""system"": ""cubic"", ""scale"": [1.0, 1.0, 1.0], ""optical"": {""transparent"": 1, ""refraction"": 1.5, ""birefringence"": 0.0}}"
Tivanite,TiV3+O3(OH),"{""Ti"": 1.0, ""V"": 1.0, ""O"": 4.0, ""H"": 1.0}",163.82,#FFFFFF,monoclinic,"{""system"": ""monoclinic"", ""scale"": [0.7, 1.0, 1.3], ""optical"": {""transparent"": 1, ""refraction"": 1.5, ""birefringence"": 0.01}}"
Tobelite,(NH4)Al2(Si3Al)O10(OH)2,"{""N"": 1.0, ""H"": 6.0, ""Al"": 3.0, ""Si"": 3.0, ""O"": 12.0}",377.27,#FFFFFF,monoclinic,"{""system"": ""monoclinic"", ""scale"": [0.7, 1.0, 1.3], ""optical"": {""transparent"": 1, ""refraction"": 1.5, ""birefringence"": 0.01}}"
Tobermorite,Ca4Si6O17(H2O)2·(Ca·3H2O),"{""Ca"": 7.0, ""Si"": 6.0, ""O"": 28.0, ""H"": 22.0}",919.28,#FFFFFF,monoclinic,"{""system"": ""monoclinic"", ""scale"": [0.7, 1.0, 1.3], ""optical"": {""transparent"": 1, ""refraction"": 1.5, ""birefringence"": 0.01}}"
Tokkoite,K2Ca4Si7O18(OH)F,"{""K"": 2.0, ""Ca"": 4.0, ""Si"": 7.0, ""O"": 19.0, ""H"": 1.0, ""F"": 1.0}",759.16,#FFFFFF,triclinic,"{""system"": ""triclinic"", ""scale"": [0.7, 1.0, 1.3], ""optical"": {""transparent"": 1, ""refraction"": 1.5, ""birefringence"": 0.01}}"
Tolbachite,CuCl2,"{""Cu"": 1.0, ""Cl"": 2.0}",134.45,#00BFFF,monoclinic,"{""system"": ""monoclinic"", ""scale"": [0.7, 1.0, 1.3], ""optical"": {""transparent"": 0, ""refraction"": 0.0, ""birefringence"": 0.0}}"
Toledoite,TiFeSi,"{""Ti"": 1.0, ""Fe"": 1.0, ""Si"": 1.0}",131.81,#8B4513,orthorhombic,"{""system"": ""orthorhombic"", ""scale"": [0.8, 1.0, 1.2], ""optical"": {""transparent"": 0, ""refraction"": 0.0, ""birefringence"": 0.0}}"
Tolovkite,IrSbS,"{""Ir"": 1.0, ""Sb"": 1.0, ""S"": 1.0}",346.04,#A9A9A9,orthorhombic,"{""system"": ""orthorhombic"", ""scale"": [0.8, 1.0, 1.2], ""optical"": {""transparent"": 0, ""refraction"": 0.0, ""birefringence"": 0.0}}"
Tolstykhite,Au3S4Te6,"{""Au"": 3.0, ""S"": 4.0, ""Te"": 6.0}",1484.75,#A9A9A9,triclinic,"{""system"": ""triclinic"", ""scale"": [0.7, 1.0, 1.3], ""optical"": {""transparent"": 0, ""refraction"": 0.0, ""birefringence"": 0.0}}"
Tomamaeite,Cu3Pt,"{""Cu"": 3.0, ""Pt"": 1.0}",385.73,#00BFFF,cubic,"{""system"": ""cubic"", ""scale"": [1.0, 1.0, 1.0], ""optical"": {""transparent"": 0, ""refraction"": 0.0, ""birefringence"": 0.0}}"
Tomcampbellite,[KCl][Fe2+14(OH)6(PO4)6(PO3OH)2],"{""K"": 1.0, ""Cl"": 1.0, ""Fe"": 14.0, ""O"": 38.0, ""H"": 8.0, ""P"": 8.0}",1720.27,#556B2F,monoclinic,"{""system"": ""monoclinic"", ""scale"": [0.7, 1.0, 1.3], ""optical"": {""transparent"": 0, ""refraction"": 0.0, ""birefringence"": 0.0}}"
Tomichite,V3+4Ti4+3As3+O13(OH),"{""V"": 4.0, ""Ti"": 3.0, ""As"": 1.0, ""O"": 14.0, ""H"": 1.0}",647.3,#FFFFFF,monoclinic,"{""system"": ""monoclinic"", ""scale"": [0.7, 1.0, 1.3], ""optical"": {""transparent"": 1, ""refraction"": 1.5, ""birefringence"": 0.01}}"
Tomsquarryite,NaMgAl3(PO4)2(OH)6·8H2O,"{""Na"": 1.0, ""Mg"": 1.0, ""Al"": 3.0, ""P"": 2.0, ""O"": 22.0, ""H"": 22.0}",564.36,#FFFFFF,,"{""system"": """", ""scale"": [1.0, 1.0, 1.0], ""optical"": {""transparent"": 1, ""refraction"": 1.5, ""birefringence"": 0.01}}"
Tondiite,Cu3MgCl2(OH)6,"{""Cu"": 3.0, ""Mg"": 1.0, ""Cl"": 2.0, ""O"": 6.0, ""H"": 6.0}",387.91,#FFFFFF,hexagonal,"{""system"": ""hexagonal"", ""scale"": [1.0, 1.0, 1.6], ""optical"": {""transparent"": 1, ""refraction"": 1.5, ""birefringence"": 0.01}}"
Tongbaite,Cr3C2,"{""Cr"": 3.0, ""C"": 2.0}",180.02,#228B22,orthorhombic,"{""system"": ""orthorhombic"", ""scale"": [0.8, 1.0, 1.2], ""optical"": {""transparent"": 0, ""refraction"": 0.0, ""birefringence"": 0.0}}"
Tooeleite,Fe3+6(AsO3)4(SO4)(OH)4·4H2O,"{""Fe"": 6.0, ""As"": 4.0, ""O"": 24.0, ""S"": 1.0, ""H"": 12.0}",1062.94,#556B2F,monoclinic,"{""system"": ""monoclinic"", ""scale"": [0.7, 1.0, 1.3], ""optical"": {""transparent"": 0, ""refraction"": 0.0, ""birefringence"": 0.0}}"
Topaz,Al2SiO4F2,"{""Al"": 2.0, ""Si"": 1.0, ""O"": 4.0, ""F"": 2.0}",184.05,#FFFFFF,orthorhombic,"{""system"": ""orthorhombic"", ""scale"": [0.8, 1.0, 1.2], ""optical"": {""transparent"": 1, ""refraction"": 1.5, ""birefringence"": 0.01}}"
Topsoeite,FeF3(H2O)3,"{""Fe"": 1.0, ""F"": 3.0, ""H"": 6.0, ""O"": 3.0}",166.9,#556B2F,tetragonal,"{""system"": ""tetragonal"", ""scale"": [1.0, 1.0, 1.4], ""optical"": {""transparent"": 0, ""refraction"": 0.0, ""birefringence"": 0.0}}"
Torbernite,Cu(UO2)2(PO4)2·12H2O,"{""Cu"": 1.0, ""U"": 2.0, ""O"": 24.0, ""P"": 2.0, ""H"": 24.0}",1009.74,#FFFFFF,tetragonal,"{""system"": ""tetragonal"", ""scale"": [1.0, 1.0, 1.4], ""optical"": {""transparent"": 1, ""refraction"": 1.5, ""birefringence"": 0.01}}"
Tornebohmite-(Ce),Ce2Al(SiO4)2(OH),"{""Ce"": 2.0, ""Al"": 1.0, ""Si"": 2.0, ""O"": 9.0, ""H"": 1.0}",508.41,#FFFFFF,monoclinic,"{""system"": ""monoclinic"", ""scale"": [0.7, 1.0, 1.3], ""optical"": {""transparent"": 1, ""refraction"": 1.5, ""birefringence"": 0.01}}"
Tornebohmite-(La),La2Al(SiO4)2(OH),"{""La"": 2.0, ""Al"": 1.0, ""Si"": 2.0, ""O"": 9.0, ""H"": 1.0}",505.99,#FFFFFF,monoclinic,"{""system"": ""monoclinic"", ""scale"": [0.7, 1.0, 1.3], ""optical"": {""transparent"": 1, ""refraction"": 1.5, ""birefringence"": 0.01}}"
Tornroosite,Pd11As2Te2,"{""Pd"": 11.0, ""As"": 2.0, ""Te"": 2.0}",1575.66,#808080,cubic,"{""system"": ""cubic"", ""scale"": [1.0, 1.0, 1.0], ""optical"": {""transparent"": 0, ""refraction"": 0.0, ""birefringence"": 0.0}}"
Torryweiserite,Rh5Ni10S16,"{""Rh"": 5.0, ""Ni"": 10.0, ""S"": 16.0}",1614.41,#A9A9A9,hexagonal,"{""system"": ""hexagonal"", ""scale"": [1.0, 1.0, 1.6], ""optical"": {""transparent"": 0, ""refraction"": 0.0, ""birefringence"": 0.0}}"