name,formula,elements,density,color,crystal,pm_ids,gacha_weight
Hitachiite,Pb5Bi2Te2S6,"{""Pb"": 5.0, ""Bi"": 2.0, ""Te"": 2.0, ""S"": 6.0}",1901.52,#708090,hexagonal,{33},2.51e-10
Hizenite-(Y),Ca2Y6(CO3)11·14H2O,"{""Ca"": 2.0, ""Y"": 6.0, ""C"": 11.0, ""O"": 47.0, ""H"": 28.0}",1525.89,#FFFFFF,orthorhombic,{47},1.5015e-07
Hjalmarite,Na(NaMn)Mg5Si8O22(OH)2,"{""Na"": 2.0, ""Mn"": 1.0, ""Mg"": 5.0, ""Si"": 8.0, ""O"": 24.0, ""H"": 2.0}",833.115,#FFFFFF,monoclinic,{32},1.214e-09
Hocartite,Ag2FeSnS4,"{""Ag"": 2.0, ""Fe"": 1.0, ""Sn"": 1.0, ""S"": 4.0}",518.535,#DAA520,tetragonal,{12},1.55e-09
Hochelagaite,CaNb4O11·8H2O,"{""Ca"": 1.0, ""Nb"": 4.0, ""O"": 19.0, ""H"": 16.0}",731.811,#FFFFFF,monoclinic,{35},1.3774e-08
Hochleitnerite,[(H2O)K]Mn2(Ti2Fe3+)(PO4)4O2(H2O)10·4H2O,"{""H"": 30.0, ""O"": 33.0, ""K"": 1.0, ""Mn"": 2.0, ""Ti"": 2.0, ""Fe"": 1.0, ""P"": 4.0}",982.656,#556B2F,monoclinic,{},5e-08
Hodgkinsonite,Zn2Mn2+(SiO4)(OH)2,"{""Zn"": 2.0, ""Mn"": 1.0, ""Si"": 1.0, ""O"": 6.0, ""H"": 2.0}",311.793,#FFFFFF,monoclinic,{32},1.214e-09
Hodrusite,Cu8Bi12S22,"{""Cu"": 8.0, ""Bi"": 12.0, ""S"": 22.0}",3721.448,#A9A9A9,monoclinic,{33},2.51e-10
Hoelite,C14H8O2,"{""C"": 14.0, ""H"": 8.0, ""O"": 2.0}",208.216,#FFFFFF,monoclinic,"{50,54}",7.9365e-08
Hoganite,Cu(CH3COO)2·H2O,"{""Cu"": 1.0, ""C"": 4.0, ""H"": 8.0, ""O"": 5.0}",199.649,#FFFFFF,monoclinic,"{53,55}",1.23349e-07
Hogtuvaite,Ca4[Fe2+6Fe3+6]O4[Si8Be2Al2O36],"{""Ca"": 4.0, ""Fe"": 12.0, ""O"": 40.0, ""Si"": 8.0, ""Be"": 2.0, ""Al"": 2.0}",1767.0804,#556B2F,triclinic,{40},9.404389e-06
Hohmannite,Fe3+2O(SO4)2·8H2O,"{""Fe"": 2.0, ""O"": 17.0, ""S"": 2.0, ""H"": 16.0}",463.921,#556B2F,triclinic,{47},3.003e-09
Hokkaidoite,C22H12,"{""C"": 22.0, ""H"": 12.0}",276.338,#FFFFFF,monoclinic,{},1e-06
Holdenite,Mn2+6Zn3(AsO4)2(SiO4)(OH)8,"{""Mn"": 6.0, ""Zn"": 3.0, ""As"": 2.0, ""O"": 20.0, ""Si"": 1.0, ""H"": 8.0}",1031.741,#FFFFFF,orthorhombic,"{32,47}",8.721e-09
Hollandite,Ba(Mn4+6Mn3+2)O16,"{""Ba"": 1.0, ""Mn"": 8.0, ""O"": 16.0}",832.818,#FFB6C1,monoclinic,"{32,47,53}",1.2995e-08
Hollingworthite,RhAsS,"{""Rh"": 1.0, ""As"": 1.0, ""S"": 1.0}",209.892,#FFD700,cubic,"{7,26,33,37}",4.158e-09
Hollisterite,Al3Fe,"{""Al"": 3.0, ""Fe"": 1.0}",136.791,#8B4513,monoclinic,{6},9.2683e-08
Holtstamite,Ca3Al2(SiO4)2(OH)4,"{""Ca"": 3.0, ""Al"": 2.0, ""Si"": 2.0, ""O"": 12.0, ""H"": 4.0}",426.388,#FFFFFF,tetragonal,"{31,47}",2.31712e-07
Holubite,Ag3Pb6(Sb8Bi3)S24,"{""Ag"": 3.0, ""Pb"": 6.0, ""Sb"": 8.0, ""Bi"": 3.0, ""S"": 24.0}",3937.27,#708090,monoclinic,{},2e-08
Homilite,Ca2Fe2+B2Si2O10,"{""Ca"": 2.0, ""Fe"": 1.0, ""B"": 2.0, ""Si"": 2.0, ""O"": 10.0}",373.781,#556B2F,monoclinic,{35},1.3774e-08
Honeaite,Au3TlTe2,"{""Au"": 3.0, ""Tl"": 1.0, ""Te"": 2.0}",1050.49,#FFD700,orthorhombic,"{23,33}",1.771341e-06
Hongshiite,PtCu,"{""Pt"": 1.0, ""Cu"": 1.0}",258.626,#00BFFF,hexagonal,"{26,37}",1.14074e-07
Honzaite,Ni2[AsO3(OH)]2(H2O)5,"{""Ni"": 2.0, ""As"": 2.0, ""O"": 13.0, ""H"": 12.0}",487.313,#FFFFFF,monoclinic,{47},1.5015e-07
Hopeite,Zn3(PO4)2·4H2O,"{""Zn"": 3.0, ""P"": 2.0, ""O"": 12.0, ""H"": 8.0}",458.14,#FFFFFF,orthorhombic,"{34,47,53}",2.5335e-08
Hoperanchite,(NH4)2(S2O3),"{""N"": 2.0, ""H"": 8.0, ""S"": 2.0, ""O"": 3.0}",148.195,#FFFFFF,monoclinic,{},2e-08
Hopmannite,Ba2(Ti5Fe)O13,"{""Ba"": 2.0, ""Ti"": 5.0, ""Fe"": 1.0, ""O"": 13.0}",777.827,#556B2F,monoclinic,{},3e-07
Horiite,Ba2Mn2Mn4Ti2(Si2O7)2(PO4)2O2(OH)2,"{""Ba"": 2.0, ""Mn"": 6.0, ""Ti"": 2.0, ""Si"": 4.0, ""O"": 26.0, ""P"": 2.0, ""H"": 2.0}",1292.3,#FFFFFF,triclinic,{},5e-08
Hornesite,Mg3(AsO4)2·8H2O,"{""Mg"": 3.0, ""As"": 2.0, ""O"": 16.0, ""H"": 16.0}",494.871,#FFFFFF,monoclinic,{31},2.809e-08
Horomanite,Fe6Ni3S8,"{""Fe"": 6.0, ""Ni"": 3.0, ""S"": 8.0}",767.629,#DAA520,tetragonal,"{7,12,33}",3.427e-09
Horvathite-(Y),NaY(CO3)F2,"{""Na"": 1.0, ""Y"": 1.0, ""C"": 1.0, ""O"": 3.0, ""F"": 2.0}",209.9,#FFFFFF,orthorhombic,{35},6.89e-10
Hoslite,Fe3+3(VO4)2(SO4)(OH)(H2O)4·3H2O,"{""Fe"": 3.0, ""V"": 2.0, ""O"": 20.0, ""S"": 1.0, ""H"": 15.0}",636.579,#556B2F,monoclinic,{47},3.003e-09
Hotsonite,Al5(SO4)(PO4)(OH)10·8H2O,"{""Al"": 5.0, ""S"": 1.0, ""O"": 26.0, ""P"": 1.0, ""H"": 26.0}",640.126,#FFFFFF,triclinic,{47},3.003e-09
Housleyite,Pb6CuTe4O18(OH)2,"{""Pb"": 6.0, ""Cu"": 1.0, ""Te"": 4.0, ""O"": 20.0, ""H"": 2.0}",2139.142,#FFFFFF,monoclinic,{47},1.5015e-07
Howardevansite,NaCu2+Fe3+2(VO4)3,"{""Na"": 1.0, ""Cu"": 1.0, ""Fe"": 2.0, ""V"": 3.0, ""O"": 12.0}",543.04,#556B2F,triclinic,{45},2.3585e-08
Howlite,Ca2SiB5O9(OH)5,"{""Ca"": 2.0, ""Si"": 1.0, ""B"": 5.0, ""O"": 14.0, ""H"": 5.0}",391.317,#FFFFFF,monoclinic,{25},4.7619e-08
Hrabakite,Ni9PbSbS8,"{""Ni"": 9.0, ""Pb"": 1.0, ""Sb"": 1.0, ""S"": 8.0}",1113.677,#708090,tetragonal,{33},2.51e-10
Hsianghualite,Li2Ca3Be3(SiO4)3F2,"{""Li"": 2.0, ""Ca"": 3.0, ""Be"": 3.0, ""Si"": 3.0, ""O"": 12.0, ""F"": 2.0}",475.3896,#FFFFFF,cubic,{22},2.024e-09
Huanghoite-(Ce),BaCe(CO3)2F,"{""Ba"": 1.0, ""Ce"": 1.0, ""C"": 2.0, ""O"": 6.0, ""F"": 1.0}",416.464,#FFFFFF,hexagonal,"{35,36}",2.407e-09
Huanghoite-(Nd),BaNd(CO3)2F,"{""Ba"": 1.0, ""Nd"": 1.0, ""C"": 2.0, ""O"": 6.0, ""F"": 1.0}",420.584,#FFFFFF,hexagonal,{},5e-08
Huanzalaite,Mg(WO4),"{""Mg"": 1.0, ""W"": 1.0, ""O"": 4.0}",272.141,#FFFFFF,monoclinic,{31},2.809e-08
Hubbardite,Mg(H2O)6[(UO2)2O(OH)(SO4)]2·8H2O,"{""Mg"": 1.0, ""H"": 30.0, ""O"": 34.0, ""U"": 4.0, ""S"": 2.0}",1614.751,#FFFFFF,orthorhombic,{},2e-08
Hubeite,Ca2Mn2+Fe3+Si4O12(OH)·2H2O,"{""Ca"": 2.0, ""Mn"": 1.0, ""Fe"": 1.0, ""Si"": 4.0, ""O"": 15.0, ""H"": 5.0}",548.304,#556B2F,triclinic,{47},7.508e-09
Hubnerite,Mn2+(WO4),"{""Mn"": 1.0, ""W"": 1.0, ""O"": 4.0}",302.774,#FFB6C1,monoclinic,"{26,31,34}",4.291e-09
Huemulite,Na4MgV5+10O28·24H2O,"{""Na"": 4.0, ""Mg"": 1.0, ""V"": 10.0, ""O"": 52.0, ""H"": 48.0}",1506.017,#FFFFFF,triclinic,"{47,50,55}",2.24659e-07
Huenite,Cu4(MoO4)3(OH)2,"{""Cu"": 4.0, ""Mo"": 3.0, ""O"": 14.0, ""H"": 2.0}",768.036,#FFFFFF,hexagonal,{47},1.5015e-07
Hugelite,Pb2(UO2)3(AsO4)2O2·5H2O,"{""Pb"": 2.0, ""U"": 3.0, ""O"": 21.0, ""As"": 2.0, ""H"": 10.0}",1624.393,#FFFFFF,monoclinic,{47},1.5015e-07
Hughesite,Na3AlV10O28·22H2O,"{""Na"": 3.0, ""Al"": 1.0, ""V"": 10.0, ""O"": 50.0, ""H"": 44.0}",1449.674,#FFFFFF,triclinic,"{47,55}",1.88029e-07
Huizingite-(Al),(NH4)9Al3(SO4)8(OH)2·4H2O,"{""N"": 9.0, ""H"": 46.0, ""Al"": 3.0, ""S"": 8.0, ""O"": 38.0}",1117.819,#FFFFFF,triclinic,"{45,47,50,54}",5.062e-09
Hulsite,Fe2+2Fe3+O2(BO3),"{""Fe"": 3.0, ""O"": 5.0, ""B"": 1.0}",258.34,#8B4513,monoclinic,{23},1.758794e-06
Humberstonite,K3Na7Mg2(SO4)6(NO3)2·6H2O,"{""K"": 3.0, ""Na"": 7.0, ""Mg"": 2.0, ""S"": 6.0, ""O"": 36.0, ""N"": 2.0, ""H"": 12.0}",1135.268,#FFFFFF,hexagonal,"{25,47}",3.955e-09
Humboldtine,Fe2+(C2O4)·2H2O,"{""Fe"": 1.0, ""C"": 2.0, ""O"": 6.0, ""H"": 4.0}",179.893,#556B2F,monoclinic,"{34,50}",5.4361e-08
Humite,Mg7(SiO4)3F2,"{""Mg"": 7.0, ""Si"": 3.0, ""O"": 12.0, ""F"": 2.0}",484.374,#FFFFFF,orthorhombic,"{7,31,36,40}",4.77407e-07
Hummerite,KMgV5+5O14·8H2O,"{""K"": 1.0, ""Mg"": 1.0, ""V"": 5.0, ""O"": 22.0, ""H"": 16.0}",686.219,#FFFFFF,triclinic,{47},1.5015e-07
Hunchunite,Au2Pb,"{""Au"": 2.0, ""Pb"": 1.0}",601.14,#FFD700,cubic,"{26,40}",9.444389e-06
Hungchaoite,MgB4O5(OH)4·7H2O,"{""Mg"": 1.0, ""B"": 4.0, ""O"": 16.0, ""H"": 18.0}",341.673,#FFFFFF,triclinic,{25},4.7619e-08
Huntingdonite,Pb19Sb16As6S51Cl2,"{""Pb"": 19.0, ""Sb"": 16.0, ""As"": 6.0, ""S"": 51.0, ""Cl"": 2.0}",8040.452,#708090,triclinic,{},2e-08
Huntite,CaMg3(CO3)4,"{""Ca"": 1.0, ""Mg"": 3.0, ""C"": 4.0, ""O"": 12.0}",353.025,#FFFFFF,hexagonal,"{13,21,23,25,47,50,54}",2.311764e-06
Hureaulite,Mn2+5(PO3OH)2(PO4)2·4H2O,"{""Mn"": 5.0, ""P"": 4.0, ""O"": 20.0, ""H"": 10.0}",728.646,#FFFFFF,monoclinic,"{34,47}",8.394e-09
Hurlbutite,CaBe2(PO4)2,"{""Ca"": 1.0, ""Be"": 2.0, ""P"": 2.0, ""O"": 8.0}",248.0424,#FFFFFF,monoclinic,"{19,34}",3.498277e-06
Hutcheonite,Ca3Ti2(SiAl2)O12,"{""Ca"": 3.0, ""Ti"": 2.0, ""Si"": 1.0, ""Al"": 2.0, ""O"": 12.0}",490.005,#FFFFFF,cubic,{6},1.4634e-08
Hutchinsonite,TlPbAs5S9,"{""Tl"": 1.0, ""Pb"": 1.0, ""As"": 5.0, ""S"": 9.0}",1074.73,#708090,orthorhombic,"{23,33}",3.5427e-08
Huttonite,Th(SiO4),"{""Th"": 1.0, ""Si"": 1.0, ""O"": 4.0}",324.121,#FFFFFF,monoclinic,"{26,34}",5.773e-08
Hyblerite,Pb2+4Bi3+2(SO4)2(CO3)O4,"{""Pb"": 4.0, ""Bi"": 2.0, ""S"": 2.0, ""O"": 15.0, ""C"": 1.0}",1562.876,#FFFFFF,orthorhombic,{},2e-08
Hydrobasaluminite,Al4(SO4)(OH)10·15H2O,"{""Al"": 4.0, ""S"": 1.0, ""O"": 29.0, ""H"": 40.0}",644.279,#FFFFFF,monoclinic,"{47,50,54}",4.59e-09
Hydroboracite,CaMg[B3O4(OH)3]2·3H2O,"{""Ca"": 1.0, ""Mg"": 1.0, ""B"": 6.0, ""O"": 17.0, ""H"": 12.0}",413.322,#FFFFFF,monoclinic,"{25,47}",1.97769e-07
Hydrocerussite,Pb3(CO3)2(OH)2,"{""Pb"": 3.0, ""C"": 2.0, ""O"": 8.0, ""H"": 2.0}",775.63,#FFFFFF,hexagonal,"{47,49,53}",3.6549e-07
Hydrochlorborite,Ca2B3O3(OH)4·BO(OH)3Cl·7H2O,"{""Ca"": 2.0, ""B"": 4.0, ""O"": 18.0, ""H"": 21.0, ""Cl"": 1.0}",467.996,#FFFFFF,monoclinic,{25},4.7619e-08
Hydrodelhayelite,KCa2(Si7Al)O17(OH)2·6H2O,"{""K"": 1.0, ""Ca"": 2.0, ""Si"": 7.0, ""Al"": 1.0, ""O"": 25.0, ""H"": 14.0}",756.918,#FFFFFF,orthorhombic,{47},1.95195e-07
Hydrodresserite,BaAl2(CO3)2(OH)4·3H2O,"{""Ba"": 1.0, ""Al"": 2.0, ""C"": 2.0, ""O"": 13.0, ""H"": 10.0}",433.383,#FFFFFF,triclinic,{31},2.809e-08
Hydroglauberite,Na10Ca3(SO4)8·6H2O,"{""Na"": 10.0, ""Ca"": 3.0, ""S"": 8.0, ""O"": 38.0, ""H"": 12.0}",1226.672,#FFFFFF,unknown,{47},3.003e-09
Hydrohalite,NaCl·2H2O,"{""Na"": 1.0, ""Cl"": 1.0, ""H"": 4.0, ""O"": 2.0}",94.47,#FFFFFF,monoclinic,{18},2.5e-06
Hydrohalloysite,Al2Si2O5(OH)4·2H2O,"{""Al"": 2.0, ""Si"": 2.0, ""O"": 11.0, ""H"": 8.0}",294.187,#FFFFFF,unknown,"{16,21,22,24,47,48}",2.069673e-06
Hydromagnesite,Mg5(CO3)4(OH)2·4H2O,"{""Mg"": 5.0, ""C"": 4.0, ""O"": 18.0, ""H"": 10.0}",467.631,#FFFFFF,monoclinic,"{13,47,50,54,55}",4.16648e-07
Hydroniumjarosite,(H3O)Fe3+3(SO4)2(OH)6,"{""H"": 9.0, ""O"": 15.0, ""Fe"": 3.0, ""S"": 2.0}",480.712,#556B2F,hexagonal,"{47,55}",3.761e-09
Hydroniumpharmacosiderite,(H3O)Fe3+4(AsO4)3(OH)4·4H2O,"{""H"": 15.0, ""O"": 21.0, ""Fe"": 4.0, ""As"": 3.0}",799.245,#556B2F,cubic,{47},1.5015e-07
Hydronovacekite,Mg(UO2)2(AsO4)2·12H2O,"{""Mg"": 1.0, ""U"": 2.0, ""O"": 24.0, ""As"": 2.0, ""H"": 24.0}",1058.377,#FFFFFF,triclinic,{47},1.5015e-07
Hydropascoite,Ca3(V10O28)·24H2O,"{""Ca"": 3.0, ""V"": 10.0, ""O"": 52.0, ""H"": 48.0}",1509.986,#FFFFFF,triclinic,"{47,55}",1.88029e-07
Hydroredmondite,[Pb8O2Zn(OH)6](S2O3)4·2H2O,"{""Pb"": 8.0, ""O"": 22.0, ""Zn"": 1.0, ""H"": 10.0, ""S"": 8.0}",2341.518,#FFFFFF,monoclinic,{47},3.003e-09
Hydroromarchite,Sn2+3O2(OH)2,"{""Sn"": 3.0, ""O"": 4.0, ""H"": 2.0}",422.142,#FFFFFF,tetragonal,"{47,57}",3.54232e-07
Hydrotalcite,Mg6Al2(OH)16(CO3)(H2O)4,"{""Mg"": 6.0, ""Al"": 2.0, ""O"": 23.0, ""H"": 24.0, ""C"": 1.0}",603.974,#FFFFFF,hexagonal,{13},1.49254e-07
Hydroterskite,Na2ZrSi6O12(OH)6,"{""Na"": 2.0, ""Zr"": 1.0, ""Si"": 6.0, ""O"": 18.0, ""H"": 6.0}",599.744,#FFFFFF,orthorhombic,{35},1.3774e-08
Hydrotungstite,WO2(OH)2·H2O,"{""W"": 1.0, ""O"": 5.0, ""H"": 4.0}",267.867,#FFFFFF,monoclinic,{47},1.5015e-07
Hydroxylapatite,Ca5(PO4)3OH,"{""Ca"": 5.0, ""P"": 3.0, ""O"": 13.0, ""H"": 1.0}",502.307,#FFFFFF,hexagonal,"{6,34,40,44,47,49,52}",1.07989e-06
Hydroxylbastnasite-(Ce),Ce(CO3)(OH),"{""Ce"": 1.0, ""C"": 1.0, ""O"": 4.0, ""H"": 1.0}",217.135,#FFFFFF,hexagonal,"{19,23,26,31,34,35,36,40}",4.6262176e-05
Hydroxylbastnasite-(La),La(CO3)(OH),"{""La"": 1.0, ""C"": 1.0, ""O"": 4.0, ""H"": 1.0}",215.925,#FFFFFF,hexagonal,{35},1.3774e-08
Hydroxylbastnasite-(Nd),Nd(CO3)(OH),"{""Nd"": 1.0, ""C"": 1.0, ""O"": 4.0, ""H"": 1.0}",221.255,#FFFFFF,hexagonal,"{34,35,36,48}",2.06714e-07
Hydroxylbenyacarite,(H2O)2Mn2(Ti2Fe)(PO4)4[O(OH)](H2O)10·4H2O,"{""H"": 33.0, ""O"": 34.0, ""Mn"": 2.0, ""Ti"": 2.0, ""Fe"": 1.0, ""P"": 4.0}",962.581,#556B2F,orthorhombic,{},5e-08
Hydroxylborite,Mg3(BO3)(OH)3,"{""Mg"": 3.0, ""B"": 1.0, ""O"": 6.0, ""H"": 3.0}",182.743,#FFFFFF,hexagonal,{23},1.758794e-06
Hydroxylchondrodite,Mg5(SiO4)2(OH)2,"{""Mg"": 5.0, ""Si"": 2.0, ""O"": 10.0, ""H"": 2.0}",339.701,#FFFFFF,monoclinic,{35},1.7906e-08
Hydroxylclinohumite,Mg9(SiO4)4(OH)2,"{""Mg"": 9.0, ""Si"": 4.0, ""O"": 18.0, ""H"": 2.0}",621.083,#FFFFFF,monoclinic,"{31,35,40}",1.2280129e-05
Hydroxyledgrewite,Ca9(SiO4)4(OH)2,"{""Ca"": 9.0, ""Si"": 4.0, ""O"": 18.0, ""H"": 2.0}",763.04,#FFFFFF,monoclinic,{9},1.02362e-07
Hydroxylhedyphane,Ca2Pb3(AsO4)3(OH),"{""Ca"": 2.0, ""Pb"": 3.0, ""As"": 3.0, ""O"": 13.0, ""H"": 1.0}",1135.517,#FFFFFF,hexagonal,{32},2.4272e-08
Hydroxylherderite,CaBe(PO4)(OH),"{""Ca"": 1.0, ""Be"": 1.0, ""P"": 1.0, ""O"": 5.0, ""H"": 1.0}",161.0672,#FFFFFF,monoclinic,{34},1.773e-09
Hydroxylpyromorphite,Pb5(PO4)3(OH),"{""Pb"": 5.0, ""P"": 3.0, ""O"": 13.0, ""H"": 1.0}",1337.917,#FFFFFF,hexagonal,{47},1.5015e-08
Hydroxylwagnerite,Mg2(PO4)(OH),"{""Mg"": 2.0, ""P"": 1.0, ""O"": 5.0, ""H"": 1.0}",160.587,#FFFFFF,monoclinic,"{34,39}",1.6059e-08
Hydroxymcglassonite-(K),KSr4Si8O20(OH)·8H2O,"{""K"": 1.0, ""Sr"": 4.0, ""Si"": 8.0, ""O"": 29.0, ""H"": 17.0}",1095.365,#FFFFFF,tetragonal,{32},2.4272e-08
Hydrozincite,Zn5(CO3)2(OH)6,"{""Zn"": 5.0, ""C"": 2.0, ""O"": 12.0, ""H"": 6.0}",548.958,#FFFFFF,monoclinic,"{45,47,55}",2.11614e-07
Hylbrownite,Na3MgP3O10·12H2O,"{""Na"": 3.0, ""Mg"": 1.0, ""P"": 3.0, ""O"": 22.0, ""H"": 24.0}",562.367,#FFFFFF,monoclinic,{34},1.773e-09
Hypercinnabar,HgS,"{""Hg"": 1.0, ""S"": 1.0}",232.65,#A9A9A9,hexagonal,{33},2.51e-10
Hyrslite,Pb8As10Sb6S32,"{""Pb"": 8.0, ""As"": 10.0, ""Sb"": 6.0, ""S"": 32.0}",4163.3,#708090,monoclinic,{33},2.51e-10
Hyttsjoite,Pb18Ba2Ca5Mn2+2Fe3+2Si30O90Cl·6H2O,"{""Pb"": 18.0, ""Ba"": 2.0, ""Ca"": 5.0, ""Mn"": 2.0, ""Fe"": 2.0, ""Si"": 30.0, ""O"": 96.0, ""Cl"": 1.0, ""H"": 12.0}",6852.216,#556B2F,hexagonal,"{32,47}",8.721e-09
Ianbruceite,Zn2(AsO4)(OH)(H2O)·2H2O,"{""Zn"": 2.0, ""As"": 1.0, ""O"": 8.0, ""H"": 7.0}",340.73,#FFFFFF,monoclinic,{47},1.5015e-07
Ianthinite,U4+2(UO2)4O6(OH)4·9H2O,"{""U"": 6.0, ""O"": 27.0, ""H"": 22.0}",1882.329,#ADFF2F,orthorhombic,"{27,47}",1.261261e-06
Ice,H2O,"{""H"": 2.0, ""O"": 1.0}",18.015,#FFFFFF,unknown,"{1,2,3,5,18,49}",3.8857482e-05
Ichnusaite,Th(MoO4)2·3H2O,"{""Th"": 1.0, ""Mo"": 2.0, ""O"": 11.0, ""H"": 6.0}",605.977,#FFFFFF,monoclinic,{47},1.5015e-07
Icosahedrite,Al63Cu24Fe13,"{""Al"": 63.0, ""Cu"": 24.0, ""Fe"": 13.0}",3950.955,#00BFFF,unknown,{6},4.878e-08
Idaite,Cu3FeS4,"{""Cu"": 3.0, ""Fe"": 1.0, ""S"": 4.0}",374.723,#DAA520,tetragonal,"{6,33}",1.227e-09
Idrialite,C22H14,"{""C"": 22.0, ""H"": 14.0}",278.354,#FFFFFF,orthorhombic,"{14,50,54}",2.433e-07
Igelstromite,Fe3+(SbPb)O4,"{""Fe"": 1.0, ""Sb"": 1.0, ""Pb"": 1.0, ""O"": 4.0}",448.801,#556B2F,tetragonal,{32},2.4272e-08
Iimoriite-(Y),Y2(SiO4)(CO3),"{""Y"": 2.0, ""Si"": 1.0, ""O"": 7.0, ""C"": 1.0}",329.901,#FFFFFF,triclinic,"{19,34}",3.4982765e-05
Ikaite,Ca(CO3)·6H2O,"{""Ca"": 1.0, ""C"": 1.0, ""O"": 9.0, ""H"": 12.0}",208.176,#FFFFFF,monoclinic,{18},2.5e-06
Ikorskyite,KMn3+(Si4O10)·3H2O,"{""K"": 1.0, ""Mn"": 1.0, ""Si"": 4.0, ""O"": 13.0, ""H"": 6.0}",420.411,#FFFFFF,monoclinic,{},5e-08
Ikunolite,Bi4S3,"{""Bi"": 4.0, ""S"": 3.0}",932.1,#A9A9A9,hexagonal,{33},2.51e-10
Ilesite,Mn2+(SO4)·4H2O,"{""Mn"": 1.0, ""S"": 1.0, ""O"": 8.0, ""H"": 8.0}",223.054,#FFFFFF,monoclinic,"{47,55}",3.761e-09
Ilinskite,NaCu5O2(Se4+O3)2Cl3,"{""Na"": 1.0, ""Cu"": 5.0, ""O"": 8.0, ""Se"": 2.0, ""Cl"": 3.0}",733.004,#FFFFFF,orthorhombic,{45},2.3585e-08
Illoqite-(Ce),Na2NaBaCeZnSi6O17,"{""Na"": 3.0, ""Ba"": 1.0, ""Ce"": 1.0, ""Zn"": 1.0, ""Si"": 6.0, ""O"": 17.0}",852.293,#FFFFFF,orthorhombic,{35},1.3774e-08
Ilmenite,Fe2+Ti4+O3,"{""Fe"": 1.0, ""Ti"": 1.0, ""O"": 3.0}",151.709,#8B4513,hexagonal,"{4,5,6,7,8,30,35,36,38,40,41,49,50,54}",5.371559e-06
Iltisite,HgAgSCl,"{""Hg"": 1.0, ""Ag"": 1.0, ""S"": 1.0, ""Cl"": 1.0}",375.97,#A9A9A9,hexagonal,"{33,47}",3.254e-09
Ilvaite,CaFe3+Fe2+2O(Si2O7)(OH),"{""Ca"": 1.0, ""Fe"": 3.0, ""O"": 9.0, ""Si"": 2.0, ""H"": 1.0}",408.782,#556B2F,monoclinic,"{31,40}",1.2262222e-05
Imandrite,Na12Ca3Fe3+2Si12O36,"{""Na"": 12.0, ""Ca"": 3.0, ""Fe"": 2.0, ""Si"": 12.0, ""O"": 36.0}",1420.788,#556B2F,orthorhombic,{35},1.7906e-08
Imayoshiite,Ca3Al(CO3)[B(OH)4](OH)6·12H2O,"{""Ca"": 3.0, ""Al"": 1.0, ""C"": 1.0, ""O"": 25.0, ""B"": 1.0, ""H"": 34.0}",604.284,#FFFFFF,hexagonal,{13},1.49254e-07
Imiterite,Ag2HgS2,"{""Ag"": 2.0, ""Hg"": 1.0, ""S"": 2.0}",480.45,#A9A9A9,monoclinic,{33},2.51e-10
Imogolite,Al2SiO3(OH)4,"{""Al"": 2.0, ""Si"": 1.0, ""O"": 7.0, ""H"": 4.0}",198.074,#FFFFFF,unknown,"{9,47,48}",1.072233e-06
Inaglyite,PbCu3Ir8S16,"{""Pb"": 1.0, ""Cu"": 3.0, ""Ir"": 8.0, ""S"": 16.0}",2448.558,#708090,hexagonal,"{7,12,26,33}",4.227e-09
Incomsartorite,Tl6Pb144As246S516,"{""Tl"": 6.0, ""Pb"": 144.0, ""As"": 246.0, ""S"": 516.0}",66036.852,#708090,monoclinic,{33},2.51e-10
Inderborite,CaMg[B3O3(OH)5]2(H2O)4·2H2O,"{""Ca"": 1.0, ""Mg"": 1.0, ""B"": 6.0, ""O"": 22.0, ""H"": 22.0}",503.397,#FFFFFF,monoclinic,{25},4.7619e-08
Inderite,Mg[B3O3(OH)5](H2O)4·H2O,"{""Mg"": 1.0, ""B"": 3.0, ""O"": 13.0, ""H"": 15.0}",279.842,#FFFFFF,monoclinic,"{24,25}",1.82754e-07
Indialite,Mg2Al3(AlSi5)O18,"{""Mg"": 2.0, ""Al"": 4.0, ""Si"": 5.0, ""O"": 18.0}",584.945,#FFFFFF,hexagonal,"{6,45,50,54}",1.9725e-07
Indigirite,Mg2Al2(CO3)4(OH)2·15H2O,"{""Mg"": 2.0, ""Al"": 2.0, ""C"": 4.0, ""O"": 29.0, ""H"": 32.0}",646.845,#FFFFFF,unknown,{47},1.5015e-07
Indite,FeIn2S4,"{""Fe"": 1.0, ""In"": 2.0, ""S"": 4.0}",413.725,#DAA520,cubic,{12},1.55e-09
Indium,In,"{""In"": 1.0}",114.82,#FFFFFF,tetragonal,{22},4.0486e-08
Inesite,Ca2Mn2+7Si10O28(OH)2·5H2O,"{""Ca"": 2.0, ""Mn"": 7.0, ""Si"": 10.0, ""O"": 35.0, ""H"": 12.0}",1317.633,#FFFFFF,triclinic,{22},2.024e-09
Ingersonite,Ca3Mn2+Sb5+4O14,"{""Ca"": 3.0, ""Mn"": 1.0, ""Sb"": 4.0, ""O"": 14.0}",886.198,#FFFFFF,hexagonal,{32},1.214e-09
Ingodite,Bi2TeS,"{""Bi"": 2.0, ""Te"": 1.0, ""S"": 1.0}",577.62,#A9A9A9,hexagonal,{33},2.51e-10
Innelite,Ba4Ti2Na(NaMn2+)Ti(Si2O7)2[(SO4)(PO4)]O2[O(OH)],"{""Ba"": 4.0, ""Ti"": 3.0, ""Na"": 2.0, ""Mn"": 1.0, ""Si"": 4.0, ""O"": 26.0, ""S"": 1.0, ""P"": 1.0, ""H"": 1.0}",1386.195,#FFFFFF,monoclinic,{35},2.75e-10
Innsbruckite,Mn33(Si2O5)14(OH)38,"{""Mn"": 33.0, ""Si"": 28.0, ""O"": 108.0, ""H"": 38.0}",4365.53,#FFFFFF,monoclinic,"{32,47}",8.721e-09
Insizwaite,PtBi2,"{""Pt"": 1.0, ""Bi"": 2.0}",613.04,#D2B48C,cubic,"{33,37}",8.6621e-08
Interliveingite,AgPb18As25S56,"{""Ag"": 1.0, ""Pb"": 18.0, ""As"": 25.0, ""S"": 56.0}",7505.88,#708090,monoclinic,{},2e-08
Inyoite,CaB3O3(OH)5·4H2O,"{""Ca"": 1.0, ""B"": 3.0, ""O"": 12.0, ""H"": 13.0}",277.6,#FFFFFF,monoclinic,"{24,25}",1.82754e-07
Iodargyrite,AgI,"{""Ag"": 1.0, ""I"": 1.0}",234.77,#C0C0C0,hexagonal,{47},1.5015e-07
Iowaite,Mg6Fe3+2(OH)16Cl2·4H2O,"{""Mg"": 6.0, ""Fe"": 2.0, ""O"": 20.0, ""H"": 24.0, ""Cl"": 2.0}",672.592,#556B2F,hexagonal,"{13,38,47}",3.91996e-07
Iquiqueite,K3Na4Mg(CrO4)B24O39(OH)·12H2O,"{""K"": 3.0, ""Na"": 4.0, ""Mg"": 1.0, ""Cr"": 1.0, ""O"": 56.0, ""B"": 24.0, ""H"": 25.0}",1466.139,#FFFFFF,hexagonal,{25},4.7619e-08
Iranite,CuPb10(CrO4)6(SiO4)2(OH)2,"{""Cu"": 1.0, ""Pb"": 10.0, ""Cr"": 6.0, ""O"": 34.0, ""Si"": 2.0, ""H"": 2.0}",3049.674,#FFFFFF,triclinic,{47},1.5015e-07
Irarsite,IrAsS,"{""Ir"": 1.0, ""As"": 1.0, ""S"": 1.0}",299.202,#FFD700,cubic,"{6,37}",2.457e-09
Irhtemite,Ca4Mg(AsO4)2(AsO3OH)2·4H2O,"{""Ca"": 4.0, ""Mg"": 1.0, ""As"": 4.0, ""O"": 20.0, ""H"": 10.0}",814.365,#FFFFFF,monoclinic,{47},1.5015e-07
Iridarsenite,IrAs2,"{""Ir"": 1.0, ""As"": 2.0}",342.064,#808080,monoclinic,"{26,33,36,38}",1.79504e-07
Iridium,Ir,"{""Ir"": 1.0}",192.22,#FFFFFF,cubic,"{26,36,37,38}",2.41031e-07
Iriginite,(UO2)Mo6+2O7·3H2O,"{""U"": 1.0, ""O"": 12.0, ""Mo"": 2.0, ""H"": 6.0}",627.966,#FFFFFF,orthorhombic,"{47,55}",1.88029e-07
Irinarassite,Ca3Sn2(SiAl2)O12,"{""Ca"": 3.0, ""Sn"": 2.0, ""Si"": 1.0, ""Al"": 2.0, ""O"": 12.0}",631.691,#FFFFFF,cubic,{9},7.874e-08
Iron,Fe,"{""Fe"": 1.0}",55.845,#8B4513,cubic,"{1,3,4,5,6,7,8,11,36,38,50,53,54}",1.5453254e-05
Irtyshite,Na2Ta4O11,"{""Na"": 2.0, ""Ta"": 4.0, ""O"": 11.0}",945.769,#FFFFFF,hexagonal,{34},1.773e-08
Iseite,Mn2Mo3O8,"{""Mn"": 2.0, ""Mo"": 3.0, ""O"": 8.0}",525.718,#FFB6C1,hexagonal,{32},1.214e-09