name,formula,elements,density,color,crystal_system,dna
Grandaite,Sr2Al(AsO4)2(OH),"{""Sr"": 2.0, ""Al"": 1.0, ""As"": 2.0, ""O"": 9.0, ""H"": 1.0}",497.07,#FFFFFF,monoclinic,"{""system"": ""monoclinic"", ""scale"": [0.7, 1.0, 1.3], ""optical"": {""transparent"": 1, ""refraction"": 1.5, ""birefringence"": 0.01}}"
Grandidierite,MgAl3O2(BO3)(SiO4),"{""Mg"": 1.0, ""Al"": 3.0, ""O"": 9.0, ""B"": 1.0, ""Si"": 1.0}",288.15,#FFFFFF,orthorhombic,"{""system"": ""orthorhombic"", ""scale"": [0.8, 1.0, 1.2], ""optical"": {""transparent"": 1, ""refraction"": 1.5, ""birefringence"": 0.01}}"
Grandreefite,Pb2(SO4)F2,"{""Pb"": 2.0, ""S"": 1.0, ""O"": 4.0, ""F"": 2.0}",548.46,#FFFFFF,monoclinic,"{""system"": ""monoclinic"", ""scale"": [0.7, 1.0, 1.3], ""optical"": {""transparent"": 1, ""refraction"": 1.5, ""birefringence"": 0.01}}"
Grandviewite,Cu3Al2(SO4)(OH)10·H2O,"{""Cu"": 3.0, ""Al"": 2.0, ""S"": 1.0, ""O"": 15.0, ""H"": 12.0}",528.77,#FFFFFF,triclinic,"{""system"": ""triclinic"", ""scale"": [0.7, 1.0, 1.3], ""optical"": {""transparent"": 1, ""refraction"": 1.5, ""birefringence"": 0.01}}"
Graphite,C,"{""C"": 1.0}",12.01,#FFFFFF,orthorhombic,"{""system"": ""orthorhombic"", ""scale"": [0.8, 1.0, 1.2], ""optical"": {""transparent"": 1, ""refraction"": 1.5, ""birefringence"": 0.01}}"
Gratonite,Pb9As4S15,"{""Pb"": 9.0, ""As"": 4.0, ""S"": 15.0}",2645.38,#708090,hexagonal,"{""system"": ""hexagonal"", ""scale"": [1.0, 1.0, 1.6], ""optical"": {""transparent"": 0, ""refraction"": 0.0, ""birefringence"": 0.0}}"
Grattarolaite,Fe3+3O3(PO4),"{""Fe"": 3.0, ""O"": 7.0, ""P"": 1.0}",310.52,#8B4513,hexagonal,"{""system"": ""hexagonal"", ""scale"": [1.0, 1.0, 1.6], ""optical"": {""transparent"": 0, ""refraction"": 0.0, ""birefringence"": 0.0}}"
Graulichite-(Ce),CeFe3+3(AsO4)2(OH)6,"{""Ce"": 1.0, ""Fe"": 3.0, ""As"": 2.0, ""O"": 14.0, ""H"": 6.0}",687.56,#556B2F,hexagonal,"{""system"": ""hexagonal"", ""scale"": [1.0, 1.0, 1.6], ""optical"": {""transparent"": 0, ""refraction"": 0.0, ""birefringence"": 0.0}}"
Graulichite-(La),LaFe3+3(AsO4)2(OH)6,"{""La"": 1.0, ""Fe"": 3.0, ""As"": 2.0, ""O"": 14.0, ""H"": 6.0}",686.35,#556B2F,hexagonal,"{""system"": ""hexagonal"", ""scale"": [1.0, 1.0, 1.6], ""optical"": {""transparent"": 0, ""refraction"": 0.0, ""birefringence"": 0.0}}"
Greenlizardite,(NH4)Na(UO2)2(SO4)2(OH)2·4H2O,"{""N"": 1.0, ""H"": 14.0, ""Na"": 1.0, ""U"": 2.0, ""O"": 18.0, ""S"": 2.0}",879.29,#FFFFFF,triclinic,"{""system"": ""triclinic"", ""scale"": [0.7, 1.0, 1.3], ""optical"": {""transparent"": 1, ""refraction"": 1.5, ""birefringence"": 0.01}}"
Greenockite,CdS,"{""Cd"": 1.0, ""S"": 1.0}",144.47,#A9A9A9,hexagonal,"{""system"": ""hexagonal"", ""scale"": [1.0, 1.0, 1.6], ""optical"": {""transparent"": 0, ""refraction"": 0.0, ""birefringence"": 0.0}}"
Gregoryite,Na2(CO3),"{""Na"": 2.0, ""C"": 1.0, ""O"": 3.0}",105.99,#FFFFFF,,"{""system"": """", ""scale"": [1.0, 1.0, 1.0], ""optical"": {""transparent"": 1, ""refraction"": 1.5, ""birefringence"": 0.01}}"
Greifensteinite,Ca2Be4Fe2+5(PO4)6(OH)4·6H2O,"{""Ca"": 2.0, ""Be"": 4.0, ""Fe"": 5.0, ""P"": 6.0, ""O"": 34.0, ""H"": 16.0}",1141.4,#556B2F,monoclinic,"{""system"": ""monoclinic"", ""scale"": [0.7, 1.0, 1.3], ""optical"": {""transparent"": 0, ""refraction"": 0.0, ""birefringence"": 0.0}}"
Greigite,Fe2+Fe3+2S4,"{""Fe"": 3.0, ""S"": 4.0}",295.79,#DAA520,cubic,"{""system"": ""cubic"", ""scale"": [1.0, 1.0, 1.0], ""optical"": {""transparent"": 0, ""refraction"": 0.0, ""birefringence"": 0.0}}"
Grguricite,CaCr2(CO3)2(OH)4·4H2O,"{""Ca"": 1.0, ""Cr"": 2.0, ""C"": 2.0, ""O"": 14.0, ""H"": 12.0}",404.2,#FFFFFF,triclinic,"{""system"": ""triclinic"", ""scale"": [0.7, 1.0, 1.3], ""optical"": {""transparent"": 1, ""refraction"": 1.5, ""birefringence"": 0.01}}"
Griceite,LiF,"{""Li"": 1.0, ""F"": 1.0}",25.94,#FFFFFF,cubic,"{""system"": ""cubic"", ""scale"": [1.0, 1.0, 1.0], ""optical"": {""transparent"": 1, ""refraction"": 1.5, ""birefringence"": 0.0}}"
Griffinite,Al2TiO5,"{""Al"": 2.0, ""Ti"": 1.0, ""O"": 5.0}",181.83,#FFFFFF,orthorhombic,"{""system"": ""orthorhombic"", ""scale"": [0.8, 1.0, 1.2], ""optical"": {""transparent"": 1, ""refraction"": 1.5, ""birefringence"": 0.01}}"
Grigorievite,Cu3Fe3+2Al2(VO4)6,"{""Cu"": 3.0, ""Fe"": 2.0, ""Al"": 2.0, ""V"": 6.0, ""O"": 24.0}",1045.95,#556B2F,triclinic,"{""system"": ""triclinic"", ""scale"": [0.7, 1.0, 1.3], ""optical"": {""transparent"": 0, ""refraction"": 0.0, ""birefringence"": 0.0}}"
Grimaldiite,CrO(OH),"{""Cr"": 1.0, ""O"": 2.0, ""H"": 1.0}",85.01,#228B22,hexagonal,"{""system"": ""hexagonal"", ""scale"": [1.0, 1.0, 1.6], ""optical"": {""transparent"": 0, ""refraction"": 0.0, ""birefringence"": 0.0}}"
Grimmite,NiCo2S4,"{""Ni"": 1.0, ""Co"": 2.0, ""S"": 4.0}",304.79,#A9A9A9,cubic,"{""system"": ""cubic"", ""scale"": [1.0, 1.0, 1.0], ""optical"": {""transparent"": 0, ""refraction"": 0.0, ""birefringence"": 0.0}}"
Grimselite,K3Na(UO2)(CO3)3·H2O,"{""K"": 3.0, ""Na"": 1.0, ""U"": 1.0, ""O"": 12.0, ""C"": 3.0, ""H"": 2.0}",608.37,#FFFFFF,hexagonal,"{""system"": ""hexagonal"", ""scale"": [1.0, 1.0, 1.6], ""optical"": {""transparent"": 1, ""refraction"": 1.5, ""birefringence"": 0.01}}"
Grokhovskyite,CuCrS2,"{""Cu"": 1.0, ""Cr"": 1.0, ""S"": 2.0}",179.67,#A9A9A9,hexagonal,"{""system"": ""hexagonal"", ""scale"": [1.0, 1.0, 1.6], ""optical"": {""transparent"": 0, ""refraction"": 0.0, ""birefringence"": 0.0}}"
Grootfonteinite,Pb3O(CO3)2,"{""Pb"": 3.0, ""O"": 7.0, ""C"": 2.0}",757.62,#FFFFFF,hexagonal,"{""system"": ""hexagonal"", ""scale"": [1.0, 1.0, 1.6], ""optical"": {""transparent"": 1, ""refraction"": 1.5, ""birefringence"": 0.01}}"
Grossite,CaAl4O7,"{""Ca"": 1.0, ""Al"": 4.0, ""O"": 7.0}",260.0,#FFFFFF,monoclinic,"{""system"": ""monoclinic"", ""scale"": [0.7, 1.0, 1.3], ""optical"": {""transparent"": 1, ""refraction"": 1.5, ""birefringence"": 0.01}}"
Grossular,Ca3Al2(SiO4)3,"{""Ca"": 3.0, ""Al"": 2.0, ""Si"": 3.0, ""O"": 12.0}",450.47,#FFFFFF,triclinic,"{""system"": ""triclinic"", ""scale"": [0.7, 1.0, 1.3], ""optical"": {""transparent"": 1, ""refraction"": 1.5, ""birefringence"": 0.01}}"
Grumantite,NaSi2O4(OH)·H2O,"{""Na"": 1.0, ""Si"": 2.0, ""O"": 6.0, ""H"": 3.0}",178.19,#FFFFFF,orthorhombic,"{""system"": ""orthorhombic"", ""scale"": [0.8, 1.0, 1.2], ""optical"": {""transparent"": 1, ""refraction"": 1.5, ""birefringence"": 0.01}}"
Grumiplucite,HgBi2S4,"{""Hg"": 1.0, ""Bi"": 2.0, ""S"": 4.0}",746.79,#A9A9A9,monoclinic,"{""system"": ""monoclinic"", ""scale"": [0.7, 1.0, 1.3], ""optical"": {""transparent"": 0, ""refraction"": 0.0, ""birefringence"": 0.0}}"
Grundmannite,CuBiSe2,"{""Cu"": 1.0, ""Bi"": 1.0, ""Se"": 2.0}",430.45,#00BFFF,orthorhombic,"{""system"": ""orthorhombic"", ""scale"": [0.8, 1.0, 1.2], ""optical"": {""transparent"": 0, ""refraction"": 0.0, ""birefringence"": 0.0}}"
Gruzdevite,Cu6Hg3Sb4S12,"{""Cu"": 6.0, ""Hg"": 3.0, ""Sb"": 4.0, ""S"": 12.0}",1854.83,#A9A9A9,hexagonal,"{""system"": ""hexagonal"", ""scale"": [1.0, 1.0, 1.6], ""optical"": {""transparent"": 0, ""refraction"": 0.0, ""birefringence"": 0.0}}"
Guanacoite,Cu2Mg3(OH)4(AsO4)2·4H2O,"{""Cu"": 2.0, ""Mg"": 3.0, ""O"": 16.0, ""H"": 12.0, ""As"": 2.0}",617.97,#FFFFFF,monoclinic,"{""system"": ""monoclinic"", ""scale"": [0.7, 1.0, 1.3], ""optical"": {""transparent"": 1, ""refraction"": 1.5, ""birefringence"": 0.01}}"
Guanajuatite,Bi2Se3,"{""Bi"": 2.0, ""Se"": 3.0}",654.84,#D2B48C,orthorhombic,"{""system"": ""orthorhombic"", ""scale"": [0.8, 1.0, 1.2], ""optical"": {""transparent"": 0, ""refraction"": 0.0, ""birefringence"": 0.0}}"
Guangyuanite,Pb3Cl3(Se4+O3)(OH),"{""Pb"": 3.0, ""Cl"": 3.0, ""Se"": 1.0, ""O"": 4.0, ""H"": 1.0}",871.92,#FFFFFF,orthorhombic,"{""system"": ""orthorhombic"", ""scale"": [0.8, 1.0, 1.2], ""optical"": {""transparent"": 1, ""refraction"": 1.5, ""birefringence"": 0.01}}"
Guanine,C5H3(NH2)N4O,"{""C"": 5.0, ""H"": 5.0, ""N"": 5.0, ""O"": 1.0}",151.14,#FFFFFF,monoclinic,"{""system"": ""monoclinic"", ""scale"": [0.7, 1.0, 1.3], ""optical"": {""transparent"": 1, ""refraction"": 1.5, ""birefringence"": 0.01}}"
Guastoniite-(Y),Pb4(YCa)(Si8B4O28)F,"{""Pb"": 4.0, ""Y"": 1.0, ""Ca"": 1.0, ""Si"": 8.0, ""B"": 4.0, ""O"": 28.0, ""F"": 1.0}",1692.75,#FFFFFF,triclinic,"{""system"": ""triclinic"", ""scale"": [0.7, 1.0, 1.3], ""optical"": {""transparent"": 1, ""refraction"": 1.5, ""birefringence"": 0.01}}"
Gudmundite,FeSbS,"{""Fe"": 1.0, ""Sb"": 1.0, ""S"": 1.0}",209.67,#DAA520,monoclinic,"{""system"": ""monoclinic"", ""scale"": [0.7, 1.0, 1.3], ""optical"": {""transparent"": 0, ""refraction"": 0.0, ""birefringence"": 0.0}}"
Guettardite,PbSbAsS4,"{""Pb"": 1.0, ""Sb"": 1.0, ""As"": 1.0, ""S"": 4.0}",532.12,#708090,monoclinic,"{""system"": ""monoclinic"", ""scale"": [0.7, 1.0, 1.3], ""optical"": {""transparent"": 0, ""refraction"": 0.0, ""birefringence"": 0.0}}"
Gugiaite,Ca2BeSi2O7,"{""Ca"": 2.0, ""Be"": 1.0, ""Si"": 2.0, ""O"": 7.0}",257.35,#FFFFFF,tetragonal,"{""system"": ""tetragonal"", ""scale"": [1.0, 1.0, 1.4], ""optical"": {""transparent"": 1, ""refraction"": 1.5, ""birefringence"": 0.01}}"
Guildite,CuFe3+(SO4)2(OH)·4H2O,"{""Cu"": 1.0, ""Fe"": 1.0, ""S"": 2.0, ""O"": 13.0, ""H"": 9.0}",400.59,#556B2F,monoclinic,"{""system"": ""monoclinic"", ""scale"": [0.7, 1.0, 1.3], ""optical"": {""transparent"": 0, ""refraction"": 0.0, ""birefringence"": 0.0}}"
Guilleminite,Ba(UO2)3(Se4+O3)2O2·3H2O,"{""Ba"": 1.0, ""U"": 3.0, ""O"": 17.0, ""Se"": 2.0, ""H"": 6.0}",1287.39,#FFFFFF,orthorhombic,"{""system"": ""orthorhombic"", ""scale"": [0.8, 1.0, 1.2], ""optical"": {""transparent"": 1, ""refraction"": 1.5, ""birefringence"": 0.01}}"
Guite,Co2+Co3+2O4,"{""Co"": 3.0, ""O"": 4.0}",240.79,#4169E1,cubic,"{""system"": ""cubic"", ""scale"": [1.0, 1.0, 1.0], ""optical"": {""transparent"": 0, ""refraction"": 0.0, ""birefringence"": 0.0}}"
Guixiangite,NiBiS,"{""Ni"": 1.0, ""Bi"": 1.0, ""S"": 1.0}",299.73,#A9A9A9,cubic,"{""system"": ""cubic"", ""scale"": [1.0, 1.0, 1.0], ""optical"": {""transparent"": 0, ""refraction"": 0.0, ""birefringence"": 0.0}}"
Gungerite,TlAs5Sb4S13,"{""Tl"": 1.0, ""As"": 5.0, ""Sb"": 4.0, ""S"": 13.0}",1482.8,#FFD700,orthorhombic,"{""system"": ""orthorhombic"", ""scale"": [0.8, 1.0, 1.2], ""optical"": {""transparent"": 0, ""refraction"": 0.0, ""birefringence"": 0.0}}"
Gunmaite,(Na2Sr)Sr2Al10(PO4)4F14(OH)12,"{""Na"": 2.0, ""Sr"": 3.0, ""Al"": 10.0, ""P"": 4.0, ""O"": 28.0, ""F"": 14.0, ""H"": 12.0}",1428.62,#FFFFFF,hexagonal,"{""system"": ""hexagonal"", ""scale"": [1.0, 1.0, 1.6], ""optical"": {""transparent"": 1, ""refraction"": 1.5, ""birefringence"": 0.01}}"
Gunterite,Na4Ca[V10O28]·20H2O,"{""Na"": 4.0, ""Ca"": 1.0, ""V"": 10.0, ""O"": 48.0, ""H"": 40.0}",1449.76,#FFFFFF,monoclinic,"{""system"": ""monoclinic"", ""scale"": [0.7, 1.0, 1.3], ""optical"": {""transparent"": 1, ""refraction"": 1.5, ""birefringence"": 0.01}}"
Gupeiite,Fe3Si,"{""Fe"": 3.0, ""Si"": 1.0}",195.64,#8B4513,cubic,"{""system"": ""cubic"", ""scale"": [1.0, 1.0, 1.0], ""optical"": {""transparent"": 0, ""refraction"": 0.0, ""birefringence"": 0.0}}"
Gurimite,Ba3(VO4)2,"{""Ba"": 3.0, ""V"": 2.0, ""O"": 8.0}",641.87,#FFFFFF,hexagonal,"{""system"": ""hexagonal"", ""scale"": [1.0, 1.0, 1.6], ""optical"": {""transparent"": 1, ""refraction"": 1.5, ""birefringence"": 0.01}}"
Gurzhiite,Al(UO2)(SO4)2F·10H2O,"{""Al"": 1.0, ""U"": 1.0, ""O"": 20.0, ""S"": 2.0, ""F"": 1.0, ""H"": 20.0}",688.29,#FFFFFF,triclinic,"{""system"": ""triclinic"", ""scale"": [0.7, 1.0, 1.3], ""optical"": {""transparent"": 1, ""refraction"": 1.5, ""birefringence"": 0.01}}"
Gustavite,AgPbBi3S6,"{""Ag"": 1.0, ""Pb"": 1.0, ""Bi"": 3.0, ""S"": 6.0}",1134.37,#708090,orthorhombic,"{""system"": ""orthorhombic"", ""scale"": [0.8, 1.0, 1.2], ""optical"": {""transparent"": 0, ""refraction"": 0.0, ""birefringence"": 0.0}}"
Guyanaite,CrO(OH),"{""Cr"": 1.0, ""O"": 2.0, ""H"": 1.0}",85.01,#228B22,orthorhombic,"{""system"": ""orthorhombic"", ""scale"": [0.8, 1.0, 1.2], ""optical"": {""transparent"": 0, ""refraction"": 0.0, ""birefringence"": 0.0}}"
Gwihabaite,(NH4)(NO3),"{""N"": 2.0, ""H"": 4.0, ""O"": 3.0}",80.05,#FFFFFF,orthorhombic,"{""system"": ""orthorhombic"", ""scale"": [0.8, 1.0, 1.2], ""optical"": {""transparent"": 1, ""refraction"": 1.5, ""birefringence"": 0.01}}"
Gypsum,Ca(SO4)·2H2O,"{""Ca"": 1.0, ""S"": 1.0, ""O"": 6.0, ""H"": 4.0}",172.17,#FFFFFF,monoclinic,"{""system"": ""monoclinic"", ""scale"": [0.7, 1.0, 1.3], ""optical"": {""transparent"": 1, ""refraction"": 1.5, ""birefringence"": 0.01}}"
Gyrolite,NaCa16(Si23Al)O60(OH)8·14H2O,"{""Na"": 1.0, ""Ca"": 16.0, ""Si"": 23.0, ""Al"": 1.0, ""O"": 82.0, ""H"": 36.0}",2685.61,#FFFFFF,triclinic,"{""system"": ""triclinic"", ""scale"": [0.7, 1.0, 1.3], ""optical"": {""transparent"": 1, ""refraction"": 1.5, ""birefringence"": 0.01}}"
Gysinite-(Ce),PbCe(CO3)2(OH)(H2O),"{""Pb"": 1.0, ""Ce"": 1.0, ""C"": 2.0, ""O"": 8.0, ""H"": 3.0}",502.36,#FFFFFF,orthorhombic,"{""system"": ""orthorhombic"", ""scale"": [0.8, 1.0, 1.2], ""optical"": {""transparent"": 1, ""refraction"": 1.5, ""birefringence"": 0.01}}"
Gysinite-(La),PbLa(CO3)2(OH)·H2O,"{""Pb"": 1.0, ""La"": 1.0, ""C"": 2.0, ""O"": 8.0, ""H"": 3.0}",501.15,#FFFFFF,orthorhombic,"{""system"": ""orthorhombic"", ""scale"": [0.8, 1.0, 1.2], ""optical"": {""transparent"": 1, ""refraction"": 1.5, ""birefringence"": 0.01}}"
Gysinite-(Nd),PbNd(CO3)2(OH)·H2O,"{""Pb"": 1.0, ""Nd"": 1.0, ""C"": 2.0, ""O"": 8.0, ""H"": 3.0}",506.48,#FFFFFF,orthorhombic,"{""system"": ""orthorhombic"", ""scale"": [0.8, 1.0, 1.2], ""optical"": {""transparent"": 1, ""refraction"": 1.5, ""birefringence"": 0.01}}"
Hafnon,Hf(SiO4),"{""Hf"": 1.0, ""Si"": 1.0, ""O"": 4.0}",270.58,#FFFFFF,tetragonal,"{""system"": ""tetragonal"", ""scale"": [1.0, 1.0, 1.4], ""optical"": {""transparent"": 1, ""refraction"": 1.5, ""birefringence"": 0.01}}"
Haggertyite,BaFe2+4Fe3+2Ti5MgO19,"{""Ba"": 1.0, ""Fe"": 6.0, ""Ti"": 5.0, ""Mg"": 1.0, ""O"": 19.0}",1040.09,#556B2F,hexagonal,"{""system"": ""hexagonal"", ""scale"": [1.0, 1.0, 1.6], ""optical"": {""transparent"": 0, ""refraction"": 0.0, ""birefringence"": 0.0}}"
Haggite,V3+V4+O2(OH)3,"{""V"": 2.0, ""O"": 5.0, ""H"": 3.0}",184.9,#FFFFFF,monoclinic,"{""system"": ""monoclinic"", ""scale"": [0.7, 1.0, 1.3], ""optical"": {""transparent"": 1, ""refraction"": 1.5, ""birefringence"": 0.01}}"
Hagstromite,Pb8Cu2+(Te6+O6)2(CO3)Cl4,"{""Pb"": 8.0, ""Cu"": 1.0, ""Te"": 2.0, ""O"": 15.0, ""C"": 1.0, ""Cl"": 4.0}",2370.16,#FFFFFF,orthorhombic,"{""system"": ""orthorhombic"", ""scale"": [0.8, 1.0, 1.2], ""optical"": {""transparent"": 1, ""refraction"": 1.5, ""birefringence"": 0.01}}"
Haidingerite,Ca(AsO3OH)·H2O,"{""Ca"": 1.0, ""As"": 1.0, ""O"": 5.0, ""H"": 3.0}",198.02,#FFFFFF,orthorhombic,"{""system"": ""orthorhombic"", ""scale"": [0.8, 1.0, 1.2], ""optical"": {""transparent"": 1, ""refraction"": 1.5, ""birefringence"": 0.01}}"
Haigerachite,KFe3+3(H2PO4)6(HPO4)2·4H2O,"{""K"": 1.0, ""Fe"": 3.0, ""H"": 22.0, ""P"": 8.0, ""O"": 36.0}",1052.59,#556B2F,monoclinic,"{""system"": ""monoclinic"", ""scale"": [0.7, 1.0, 1.3], ""optical"": {""transparent"": 0, ""refraction"": 0.0, ""birefringence"": 0.0}}"
Hainite-(Y),Ca2(CaY)Na(NaCa)Ti(Si2O7)2(OF)F2,"{""Ca"": 4.0, ""Y"": 1.0, ""Na"": 2.0, ""Ti"": 1.0, ""Si"": 4.0, ""O"": 15.0, ""F"": 3.0}",752.44,#FFFFFF,triclinic,"{""system"": ""triclinic"", ""scale"": [0.7, 1.0, 1.3], ""optical"": {""transparent"": 1, ""refraction"": 1.5, ""birefringence"": 0.01}}"
Haitaite-(La),LaU4+Fe3+2(Ti13Fe2+4Fe3+)O38,"{""La"": 1.0, ""U"": 1.0, ""Fe"": 7.0, ""Ti"": 13.0, ""O"": 38.0}",1998.2,#556B2F,hexagonal,"{""system"": ""hexagonal"", ""scale"": [1.0, 1.0, 1.6], ""optical"": {""transparent"": 0, ""refraction"": 0.0, ""birefringence"": 0.0}}"
Haiweeite,Ca(UO2)2(Si5O12)(OH)2·6H2O,"{""Ca"": 1.0, ""U"": 2.0, ""O"": 24.0, ""Si"": 5.0, ""H"": 14.0}",1054.7,#FFFFFF,orthorhombic,"{""system"": ""orthorhombic"", ""scale"": [0.8, 1.0, 1.2], ""optical"": {""transparent"": 1, ""refraction"": 1.5, ""birefringence"": 0.01}}"
Hakite-(Cd),Cu6(Cu4Cd2)Sb4Se13,"{""Cu"": 10.0, ""Cd"": 2.0, ""Sb"": 4.0, ""Se"": 13.0}",2373.84,#FFFFFF,cubic,"{""system"": ""cubic"", ""scale"": [1.0, 1.0, 1.0], ""optical"": {""transparent"": 1, ""refraction"": 1.5, ""birefringence"": 0.0}}"
Hakite-(Fe),Cu6(Cu4Fe2)Sb4Se13,"{""Cu"": 10.0, ""Fe"": 2.0, ""Sb"": 4.0, ""Se"": 13.0}",2260.72,#556B2F,cubic,"{""system"": ""cubic"", ""scale"": [1.0, 1.0, 1.0], ""optical"": {""transparent"": 0, ""refraction"": 0.0, ""birefringence"": 0.0}}"
Hakite-(Hg),Cu6(Cu4Hg2)Sb4Se13,"{""Cu"": 10.0, ""Hg"": 2.0, ""Sb"": 4.0, ""Se"": 13.0}",2550.2,#FFFFFF,cubic,"{""system"": ""cubic"", ""scale"": [1.0, 1.0, 1.0], ""optical"": {""transparent"": 1, ""refraction"": 1.5, ""birefringence"": 0.0}}"
Halamishite,Ni5P4,"{""Ni"": 5.0, ""P"": 4.0}",417.33,#7FFF00,hexagonal,"{""system"": ""hexagonal"", ""scale"": [1.0, 1.0, 1.6], ""optical"": {""transparent"": 0, ""refraction"": 0.0, ""birefringence"": 0.0}}"
Haleniusite-(Ce),CeOF,"{""Ce"": 1.0, ""O"": 1.0, ""F"": 1.0}",175.12,#FFFFFF,cubic,"{""system"": ""cubic"", ""scale"": [1.0, 1.0, 1.0], ""optical"": {""transparent"": 1, ""refraction"": 1.5, ""birefringence"": 0.0}}"
Haleniusite-(La),LaOF,"{""La"": 1.0, ""O"": 1.0, ""F"": 1.0}",173.91,#FFFFFF,cubic,"{""system"": ""cubic"", ""scale"": [1.0, 1.0, 1.0], ""optical"": {""transparent"": 1, ""refraction"": 1.5, ""birefringence"": 0.0}}"
Halite,NaCl,"{""Na"": 1.0, ""Cl"": 1.0}",58.44,#FFFFFF,cubic,"{""system"": ""cubic"", ""scale"": [1.0, 1.0, 1.0], ""optical"": {""transparent"": 1, ""refraction"": 1.5, ""birefringence"": 0.0}}"
Halloysite,Al2Si2O5(OH)4,"{""Al"": 2.0, ""Si"": 2.0, ""O"": 9.0, ""H"": 4.0}",258.17,#FFFFFF,monoclinic,"{""system"": ""monoclinic"", ""scale"": [0.7, 1.0, 1.3], ""optical"": {""transparent"": 1, ""refraction"": 1.5, ""birefringence"": 0.01}}"
Halotrichite,Fe2+Al2(SO4)4·22H2O,"{""Fe"": 1.0, ""Al"": 2.0, ""S"": 4.0, ""O"": 38.0, ""H"": 44.0}",890.4,#556B2F,monoclinic,"{""system"": ""monoclinic"", ""scale"": [0.7, 1.0, 1.3], ""optical"": {""transparent"": 0, ""refraction"": 0.0, ""birefringence"": 0.0}}"
Halurgite,Mg4[B8O13(OH)2]2·7H2O,"{""Mg"": 4.0, ""B"": 16.0, ""O"": 37.0, ""H"": 18.0}",880.34,#FFFFFF,,"{""system"": """", ""scale"": [1.0, 1.0, 1.0], ""optical"": {""transparent"": 1, ""refraction"": 1.5, ""birefringence"": 0.01}}"
Hambergite,Be2(BO3)(OH),"{""Be"": 2.0, ""B"": 1.0, ""O"": 4.0, ""H"": 1.0}",93.84,#FFFFFF,orthorhombic,"{""system"": ""orthorhombic"", ""scale"": [0.8, 1.0, 1.2], ""optical"": {""transparent"": 1, ""refraction"": 1.5, ""birefringence"": 0.01}}"
Hammarite,Cu2Pb2Bi4S9,"{""Cu"": 2.0, ""Pb"": 2.0, ""Bi"": 4.0, ""S"": 9.0}",1665.96,#708090,orthorhombic,"{""system"": ""orthorhombic"", ""scale"": [0.8, 1.0, 1.2], ""optical"": {""transparent"": 0, ""refraction"": 0.0, ""birefringence"": 0.0}}"
Hanauerite,AgHgSI,"{""Ag"": 1.0, ""Hg"": 1.0, ""S"": 1.0, ""I"": 1.0}",467.42,#A9A9A9,orthorhombic,"{""system"": ""orthorhombic"", ""scale"": [0.8, 1.0, 1.2], ""optical"": {""transparent"": 0, ""refraction"": 0.0, ""birefringence"": 0.0}}"
Hanawaltite,Hg1+6Hg2+O3Cl2,"{""Hg"": 7.0, ""O"": 3.0, ""Cl"": 2.0}",1523.03,#FFFFFF,orthorhombic,"{""system"": ""orthorhombic"", ""scale"": [0.8, 1.0, 1.2], ""optical"": {""transparent"": 1, ""refraction"": 1.5, ""birefringence"": 0.01}}"
Hancockite,CaPb(Al2Fe3+)[Si2O7][SiO4]O(OH),"{""Ca"": 1.0, ""Pb"": 1.0, ""Al"": 2.0, ""Fe"": 1.0, ""Si"": 3.0, ""O"": 13.0, ""H"": 1.0}",650.37,#556B2F,monoclinic,"{""system"": ""monoclinic"", ""scale"": [0.7, 1.0, 1.3], ""optical"": {""transparent"": 0, ""refraction"": 0.0, ""birefringence"": 0.0}}"
Hanjiangite,Ba2Ca(V3+Al)(AlSi3O10)(OH)2F(CO3)2,"{""Ba"": 2.0, ""Ca"": 1.0, ""V"": 1.0, ""Al"": 2.0, ""Si"": 3.0, ""O"": 18.0, ""H"": 2.0, ""F"": 1.0, ""C"": 2.0}",836.95,#FFFFFF,monoclinic,"{""system"": ""monoclinic"", ""scale"": [0.7, 1.0, 1.3], ""optical"": {""transparent"": 1, ""refraction"": 1.5, ""birefringence"": 0.01}}"