name,formula,elements,density,color,crystal,pm_ids,gacha_weight
Marumoite,Pb32As40S92,"{""Pb"": 32.0, ""As"": 40.0, ""S"": 92.0}",12576.8,#708090,monoclinic,{33},2.51e-10
Maruyamaite,K(MgAl2)(Al5Mg)(BO3)3(Si6O18)(OH)3O,"{""K"": 1.0, ""Mg"": 2.0, ""Al"": 7.0, ""B"": 3.0, ""O"": 31.0, ""Si"": 6.0, ""H"": 3.0}",976.515,#FFFFFF,hexagonal,{39},1.42857e-07
Masaitisite,KCu5O2(SeO3)2Cl3,"{""K"": 1.0, ""Cu"": 5.0, ""O"": 8.0, ""Se"": 2.0, ""Cl"": 3.0}",749.112,#FFFFFF,orthorhombic,{},1e-06
Mascagnite,(NH4)2(SO4),"{""N"": 2.0, ""H"": 8.0, ""S"": 1.0, ""O"": 4.0}",132.134,#FFFFFF,orthorhombic,"{14,45,50,52,54,55}",8.873e-09
Maslovite,PtBiTe,"{""Pt"": 1.0, ""Bi"": 1.0, ""Te"": 1.0}",531.66,#D2B48C,cubic,"{33,37}",8.6621e-08
Massicot,PbO,"{""Pb"": 1.0, ""O"": 1.0}",223.199,#FFFFFF,orthorhombic,"{50,54}",7.9365e-08
Masuyite,Pb(UO2)3O3(OH)2·3H2O,"{""Pb"": 1.0, ""U"": 3.0, ""O"": 14.0, ""H"": 8.0}",1153.34,#FFFFFF,monoclinic,{47},1.5015e-07
Mathesiusite,K5(UO2)4(SO4)4(VO5)(H2O)4,"{""K"": 5.0, ""U"": 4.0, ""O"": 33.0, ""S"": 4.0, ""V"": 1.0, ""H"": 8.0}",1862.823,#FFFFFF,tetragonal,"{47,55}",3.761e-09
Matildite,AgBiS2,"{""Ag"": 1.0, ""Bi"": 1.0, ""S"": 2.0}",380.97,#A9A9A9,hexagonal,{33},2.51e-10
Matioliite,NaMgAl5(PO4)4(OH)6·2H2O,"{""Na"": 1.0, ""Mg"": 1.0, ""Al"": 5.0, ""P"": 4.0, ""O"": 24.0, ""H"": 10.0}",700.157,#FFFFFF,unknown,"{34,47}",1.6788e-08
Matlockite,PbClF,"{""Pb"": 1.0, ""Cl"": 1.0, ""F"": 1.0}",261.648,#FFFFFF,tetragonal,"{45,47}",8.687e-09
Matsubaraite,Sr4Ti5O8(Si2O7)2,"{""Sr"": 4.0, ""Ti"": 5.0, ""O"": 22.0, ""Si"": 4.0}",1054.133,#FFFFFF,monoclinic,{35},4.132e-09
Mattagamite,CoTe2,"{""Co"": 1.0, ""Te"": 2.0}",314.133,#4169E1,orthorhombic,{33},1.2547e-08
Matteuccite,NaH(SO4)·H2O,"{""Na"": 1.0, ""H"": 3.0, ""S"": 1.0, ""O"": 5.0}",138.069,#FFFFFF,monoclinic,{45},4.72e-10
Matthiasweilite,PbTe4+O3,"{""Pb"": 1.0, ""Te"": 1.0, ""O"": 3.0}",382.797,#FFFFFF,triclinic,{47},1.5015e-07
Matulaite,Fe3+Al7(PO4)4(PO3OH)2(OH)8(H2O)8·8H2O,"{""Fe"": 1.0, ""Al"": 7.0, ""P"": 6.0, ""O"": 48.0, ""H"": 42.0}",1240.851,#556B2F,monoclinic,{47},1.5015e-08
Maucherite,Ni11As8,"{""Ni"": 11.0, ""As"": 8.0}",1244.999,#7FFF00,monoclinic,{33},1.2547e-08
Mauriziodiniite,(NH4)(As2O3)2I,"{""N"": 1.0, ""H"": 4.0, ""As"": 4.0, ""O"": 6.0, ""I"": 1.0}",540.621,#FFFFFF,hexagonal,{45},2.3585e-08
Maurogemmiite,Ti10Fe3O3,"{""Ti"": 10.0, ""Fe"": 3.0, ""O"": 3.0}",694.202,#8B4513,hexagonal,{},3e-07
Mavlyanovite,Mn5Si3,"{""Mn"": 5.0, ""Si"": 3.0}",358.945,#FFB6C1,hexagonal,"{35,39}",7.832e-09
Mawbyite,PbFe3+2(AsO4)2(OH)2,"{""Pb"": 1.0, ""Fe"": 2.0, ""As"": 2.0, ""O"": 10.0, ""H"": 2.0}",630.74,#556B2F,monoclinic,{47},1.5015e-07
Mawsonite,Cu6Fe2SnS8,"{""Cu"": 6.0, ""Fe"": 2.0, ""Sn"": 1.0, ""S"": 8.0}",868.156,#DAA520,tetragonal,{33},2.51e-10
Maxwellite,NaFe3+(AsO4)F,"{""Na"": 1.0, ""Fe"": 1.0, ""As"": 1.0, ""O"": 4.0, ""F"": 1.0}",236.751,#556B2F,monoclinic,"{20,45}",1.229e-08
Mayingite,IrBiTe,"{""Ir"": 1.0, ""Bi"": 1.0, ""Te"": 1.0}",528.8,#D2B48C,cubic,"{7,26,33}",1.33848e-07
Mazorite,Ba3(PO4)2,"{""Ba"": 3.0, ""P"": 2.0, ""O"": 8.0}",601.93,#FFFFFF,hexagonal,{51},7.812e-09
Mazzettiite,Ag3HgPbSbTe5,"{""Ag"": 3.0, ""Hg"": 1.0, ""Pb"": 1.0, ""Sb"": 1.0, ""Te"": 5.0}",1491.16,#FFFFFF,orthorhombic,{33},1.2547e-08
Mazzite-Mg,Mg5(Si26Al10)O72·30H2O,"{""Mg"": 5.0, ""Si"": 26.0, ""Al"": 10.0, ""O"": 102.0, ""H"": 60.0}",2813.933,#FFFFFF,hexagonal,{10},1.21495e-07
Mazzite-Na,Na8(Si28Al8)O72·30H2O,"{""Na"": 8.0, ""Si"": 28.0, ""Al"": 8.0, ""O"": 102.0, ""H"": 60.0}",2878.534,#FFFFFF,hexagonal,{10},2.33645e-07
Mcallisterite,Mg2[B6O7(OH)6]2·9H2O,"{""Mg"": 2.0, ""B"": 12.0, ""O"": 35.0, ""H"": 30.0}",768.535,#FFFFFF,hexagonal,"{25,47}",1.97769e-07
Mcalpineite,Cu3Te6+O6,"{""Cu"": 3.0, ""Te"": 1.0, ""O"": 6.0}",414.232,#00BFFF,orthorhombic,{47},1.5015e-07
Mcauslanite,Fe2+3Al2(PO4)3(PO3OH)F·18H2O,"{""Fe"": 3.0, ""Al"": 2.0, ""P"": 4.0, ""O"": 34.0, ""H"": 37.0, ""F"": 1.0}",945.655,#556B2F,triclinic,{47},7.508e-09
Mcbirneyite,Cu3(VO4)2,"{""Cu"": 3.0, ""V"": 2.0, ""O"": 8.0}",420.514,#00BFFF,triclinic,{45},2.3585e-08
Mcconnellite,Cu1+CrO2,"{""Cu"": 1.0, ""Cr"": 1.0, ""O"": 2.0}",147.54,#00BFFF,hexagonal,"{33,56}",8.2477e-08
Mcgillite,Mn2+8Si6O15(OH)8Cl2,"{""Mn"": 8.0, ""Si"": 6.0, ""O"": 23.0, ""H"": 8.0, ""Cl"": 2.0}",1054.955,#FFFFFF,monoclinic,{32},1.214e-09
Mcguinnessite,CuMg(CO3)(OH)2,"{""Cu"": 1.0, ""Mg"": 1.0, ""C"": 1.0, ""O"": 5.0, ""H"": 2.0}",181.873,#FFFFFF,monoclinic,"{13,40}",9.553642e-06
Mckelveyite-(Nd),NaCaBa3Nd(CO3)6·3H2O,"{""Na"": 1.0, ""Ca"": 1.0, ""Ba"": 3.0, ""Nd"": 1.0, ""C"": 6.0, ""O"": 21.0, ""H"": 6.0}",1033.391,#FFFFFF,monoclinic,{},1e-06
Mckelveyite-(Y),NaBa3CaY(CO3)6·3H2O,"{""Na"": 1.0, ""Ba"": 3.0, ""Ca"": 1.0, ""Y"": 1.0, ""C"": 6.0, ""O"": 21.0, ""H"": 6.0}",978.057,#FFFFFF,monoclinic,"{25,35}",6.1393e-08
Mckinstryite,Ag5Cu3S4,"{""Ag"": 5.0, ""Cu"": 3.0, ""S"": 4.0}",858.228,#A9A9A9,orthorhombic,{33},2.51e-10
Mcnearite,NaCa5(AsO4)(AsO3OH)4·4H2O,"{""Na"": 1.0, ""Ca"": 5.0, ""As"": 5.0, ""O"": 24.0, ""H"": 12.0}",994.062,#FFFFFF,triclinic,{47},1.5015e-07
Medaite,Mn2+6V5+Si5O18(OH),"{""Mn"": 6.0, ""V"": 1.0, ""Si"": 5.0, ""O"": 19.0, ""H"": 1.0}",825.984,#FFFFFF,monoclinic,"{22,47}",9.532e-09
Medenbachite,Bi2Fe3+Cu2+(AsO4)2O(OH)3,"{""Bi"": 2.0, ""Fe"": 1.0, ""Cu"": 1.0, ""As"": 2.0, ""O"": 12.0, ""H"": 3.0}",882.207,#556B2F,triclinic,{47},1.5015e-07
Medvedevite,KMn2+V2O6Cl·2H2O,"{""K"": 1.0, ""Mn"": 1.0, ""V"": 2.0, ""O"": 8.0, ""Cl"": 1.0, ""H"": 4.0}",363.394,#FFFFFF,monoclinic,{45},1.179e-09
Megacyclite,KNa8Si9O18(OH)9·19H2O,"{""K"": 1.0, ""Na"": 8.0, ""Si"": 9.0, ""O"": 46.0, ""H"": 47.0}",1259.113,#FFFFFF,monoclinic,{35},1.9284e-08
Megakalsilite,KAlSiO4,"{""K"": 1.0, ""Al"": 1.0, ""Si"": 1.0, ""O"": 4.0}",158.161,#FFFFFF,hexagonal,{35},1.9284e-08
Megawite,CaSnO3,"{""Ca"": 1.0, ""Sn"": 1.0, ""O"": 3.0}",206.785,#FFFFFF,orthorhombic,{9},7.874e-08
Meieranite,Na2Sr3MgSi6O17,"{""Na"": 2.0, ""Sr"": 3.0, ""Mg"": 1.0, ""Si"": 6.0, ""O"": 17.0}",773.638,#FFFFFF,orthorhombic,"{22,32}",6.4758e-08
Meierite,Ba44Si66Al30O192Cl25(OH)33,"{""Ba"": 44.0, ""Si"": 66.0, ""Al"": 30.0, ""O"": 225.0, ""Cl"": 25.0, ""H"": 33.0}",13224.879,#FFFFFF,cubic,{32},2.4272e-08
Meifuite,KFe6(Si7Al)O19(OH)4Cl2,"{""K"": 1.0, ""Fe"": 6.0, ""Si"": 7.0, ""Al"": 1.0, ""O"": 23.0, ""H"": 4.0, ""Cl"": 2.0}",1040.654,#556B2F,triclinic,"{8,9,19,20,31,34,35,40}",5.1181593e-05
Meionite,Ca4Al6Si6O24(CO3),"{""Ca"": 4.0, ""Al"": 6.0, ""Si"": 6.0, ""O"": 27.0, ""C"": 1.0}",934.698,#FFFFFF,tetragonal,"{6,9,10,16,23,25,31,34,40}",1.1598083e-05
Meisserite,Na5(UO2)(SO4)3(SO3OH)(H2O),"{""Na"": 5.0, ""U"": 1.0, ""O"": 19.0, ""S"": 4.0, ""H"": 3.0}",788.225,#FFFFFF,triclinic,"{47,55}",3.761e-09
Meitnerite,(NH4)(UO2)(SO4)(OH)·2H2O,"{""N"": 1.0, ""H"": 9.0, ""U"": 1.0, ""O"": 9.0, ""S"": 1.0}",437.16,#FFFFFF,triclinic,"{47,52,55}",6.538e-09
Meixnerite,Mg6Al2(OH)16(OH)2·4H2O,"{""Mg"": 6.0, ""Al"": 2.0, ""O"": 22.0, ""H"": 26.0}",577.98,#FFFFFF,hexagonal,"{13,47}",3.89225e-07
Meizhouite,Fe2+V3+2(PO4)2(OH)2,"{""Fe"": 1.0, ""V"": 2.0, ""P"": 2.0, ""O"": 10.0, ""H"": 2.0}",381.683,#556B2F,monoclinic,{},1e-07
Mejillonesite,NaMg2(PO3OH)(PO4)(OH)·H5O2,"{""Na"": 1.0, ""Mg"": 2.0, ""P"": 2.0, ""O"": 11.0, ""H"": 7.0}",316.593,#FFFFFF,orthorhombic,"{47,50,52,54}",3.684e-08
Melanarsite,K3Cu7Fe3+O4(AsO4)4,"{""K"": 3.0, ""Cu"": 7.0, ""Fe"": 1.0, ""O"": 20.0, ""As"": 4.0}",1237.629,#556B2F,monoclinic,{45},2.3585e-08
Melanophlogite,C2H17O5·Si46O92,"{""C"": 2.0, ""H"": 17.0, ""O"": 97.0, ""Si"": 46.0}",2884.971,#FFFFFF,tetragonal,"{13,23}",1.908048e-06
Melanostibite,Mn2Fe3+Sb5+O6,"{""Mn"": 2.0, ""Fe"": 1.0, ""Sb"": 1.0, ""O"": 6.0}",383.475,#556B2F,hexagonal,{33},6.27e-10
Melanotekite,Pb2Fe3+2O2(Si2O7),"{""Pb"": 2.0, ""Fe"": 2.0, ""O"": 9.0, ""Si"": 2.0}",726.251,#556B2F,orthorhombic,"{32,47}",1.74422e-07
Melanothallite,Cu2OCl2,"{""Cu"": 2.0, ""O"": 1.0, ""Cl"": 2.0}",213.991,#00BFFF,orthorhombic,{45},2.3585e-08
Melanterite,Fe(SO4)·7H2O,"{""Fe"": 1.0, ""S"": 1.0, ""O"": 11.0, ""H"": 14.0}",278.006,#556B2F,monoclinic,"{45,47,49,50,54,56}",9.058e-09
Melcherite,Ba2Na2Mg[Nb6O19]·6H2O,"{""Ba"": 2.0, ""Na"": 2.0, ""Mg"": 1.0, ""Nb"": 6.0, ""O"": 25.0, ""H"": 12.0}",1314.452,#FFFFFF,hexagonal,{35},1.3774e-08
Melkovite,CaFe3+2Mo5O10(PO4)2(OH)12·8H2O,"{""Ca"": 1.0, ""Fe"": 2.0, ""Mo"": 5.0, ""O"": 38.0, ""P"": 2.0, ""H"": 28.0}",1329.652,#556B2F,monoclinic,{47},1.5015e-08
Mellite,Al2C6(COO)6·16H2O,"{""Al"": 2.0, ""C"": 12.0, ""O"": 28.0, ""H"": 32.0}",678.324,#FFFFFF,tetragonal,{50},3.663e-08
Mellizinkalite,K3Zn2Cl7,"{""K"": 3.0, ""Zn"": 2.0, ""Cl"": 7.0}",496.204,#FFFFFF,triclinic,{45},2.3585e-08
Melonite,NiTe2,"{""Ni"": 1.0, ""Te"": 2.0}",313.893,#7FFF00,hexagonal,"{33,37}",8.6621e-08
Melonjosephite,CaFe2+Fe3+(PO4)2(OH),"{""Ca"": 1.0, ""Fe"": 2.0, ""P"": 2.0, ""O"": 9.0, ""H"": 1.0}",358.715,#556B2F,orthorhombic,"{22,47}",1.9064e-08
Menchettiite,Pb5Mn3Ag2Sb6As4S24,"{""Pb"": 5.0, ""Mn"": 3.0, ""Ag"": 2.0, ""Sb"": 6.0, ""As"": 4.0, ""S"": 24.0}",3216.242,#708090,monoclinic,{33},2.51e-10
Mendigite,Mn2Mn2MnCa(Si3O9)2,"{""Mn"": 5.0, ""Ca"": 1.0, ""Si"": 6.0, ""O"": 18.0}",771.26,#FFFFFF,triclinic,"{31,32}",2.618e-09
Mendipite,Pb3O2Cl2,"{""Pb"": 3.0, ""O"": 2.0, ""Cl"": 2.0}",724.498,#FFFFFF,orthorhombic,"{47,56}",2.2008e-07
Mendozavilite-KCa,[K2(H2O)15Ca(H2O)6][Mo8P2Fe3+3O34(OH)3],"{""K"": 2.0, ""H"": 45.0, ""O"": 58.0, ""Ca"": 1.0, ""Mo"": 8.0, ""P"": 2.0, ""Fe"": 3.0}",2088.659,#556B2F,monoclinic,{47},1.5015e-08
Mendozavilite-NaCu,[Na2(H2O)15Cu(H2O)6][Mo8P2Fe3+3O34(OH)3],"{""Na"": 2.0, ""H"": 45.0, ""O"": 58.0, ""Cu"": 1.0, ""Mo"": 8.0, ""P"": 2.0, ""Fe"": 3.0}",2079.911,#556B2F,monoclinic,{47},1.5015e-08
Mendozavilite-NaFe,[Na2(H2O)15Fe3+(H2O)6][Mo8P2Fe3+3O35(OH)2],"{""Na"": 2.0, ""H"": 44.0, ""O"": 58.0, ""Fe"": 4.0, ""Mo"": 8.0, ""P"": 2.0}",2071.202,#556B2F,monoclinic,{47},1.5015e-08
Mendozite,NaAl(SO4)2·11H2O,"{""Na"": 1.0, ""Al"": 1.0, ""S"": 2.0, ""O"": 19.0, ""H"": 22.0}",440.249,#FFFFFF,monoclinic,"{45,47,50,55,56}",6.363e-09
Meneghinite,Pb13CuSb7S24,"{""Pb"": 13.0, ""Cu"": 1.0, ""Sb"": 7.0, ""S"": 24.0}",4378.906,#708090,orthorhombic,{33},2.51e-10
Menezesite,Ba3MgZr4Nb12O42·12H2O,"{""Ba"": 3.0, ""Mg"": 1.0, ""Zr"": 4.0, ""Nb"": 12.0, ""O"": 54.0, ""H"": 24.0}",2804.201,#FFFFFF,cubic,{36},3.4364e-08
Mengxianminite,Ca2Sn2Mg3Al8[(BO3)(BeO4)O6]2,"{""Ca"": 2.0, ""Sn"": 2.0, ""Mg"": 3.0, ""Al"": 8.0, ""B"": 2.0, ""O"": 26.0, ""Be"": 2.0}",1061.9654,#FFFFFF,orthorhombic,"{22,23}",1.79928e-06
Meniaylovite,Ca4AlSi(SO4)F13·12H2O,"{""Ca"": 4.0, ""Al"": 1.0, ""Si"": 1.0, ""S"": 1.0, ""O"": 16.0, ""F"": 13.0, ""H"": 24.0}",774.589,#FFFFFF,cubic,{45},4.72e-10
Menshikovite,Pd3Ni2As3,"{""Pd"": 3.0, ""Ni"": 2.0, ""As"": 3.0}",661.412,#7FFF00,hexagonal,"{33,37}",8.6621e-08
Menzerite-(Y),(CaY2)Mg2(SiO4)3,"{""Ca"": 1.0, ""Y"": 2.0, ""Mg"": 2.0, ""Si"": 3.0, ""O"": 12.0}",542.743,#FFFFFF,cubic,{40},9.404389e-06
Mercallite,KH(SO4),"{""K"": 1.0, ""H"": 1.0, ""S"": 1.0, ""O"": 4.0}",136.162,#FFFFFF,orthorhombic,"{45,47}",3.475e-09
Mercury,Hg,"{""Hg"": 1.0}",200.59,#FFFFFF,unknown,"{6,14,33}",2.25262e-07
Mereheadite,Pb47O24(OH)13Cl25(BO3)2(CO3),"{""Pb"": 47.0, ""O"": 46.0, ""H"": 13.0, ""Cl"": 25.0, ""B"": 2.0, ""C"": 1.0}",11407.339,#FFFFFF,monoclinic,{47},1.5015e-07
Mereiterite,K2Fe2+(SO4)2·4H2O,"{""K"": 2.0, ""Fe"": 1.0, ""S"": 2.0, ""O"": 12.0, ""H"": 8.0}",398.213,#556B2F,monoclinic,{47},3.003e-09
Merelaniite,Pb4Mo4VSbS15,"{""Pb"": 4.0, ""Mo"": 4.0, ""V"": 1.0, ""Sb"": 1.0, ""S"": 15.0}",1866.202,#708090,triclinic,{33},2.51e-10
Merenskyite,PdTe2,"{""Pd"": 1.0, ""Te"": 2.0}",361.62,#FFFFFF,hexagonal,"{7,37}",1.55375e-07
Meridianiite,Mg(SO4)·11H2O,"{""Mg"": 1.0, ""S"": 1.0, ""O"": 15.0, ""H"": 22.0}",318.526,#FFFFFF,unknown,{47},3.003e-09
Merlinoite,K5Ca2(Si23Al9)O64·24H2O,"{""K"": 5.0, ""Ca"": 2.0, ""Si"": 23.0, ""Al"": 9.0, ""O"": 88.0, ""H"": 48.0}",2620.735,#FFFFFF,orthorhombic,"{10,16,42}",1.144788e-06
Merrillite,Ca9NaMg(PO4)7,"{""Ca"": 9.0, ""Na"": 1.0, ""Mg"": 1.0, ""P"": 7.0, ""O"": 28.0}",1072.787,#FFFFFF,hexagonal,"{4,5,6}",3.6793e-08
Merwinite,Ca3Mg(SiO4)2,"{""Ca"": 3.0, ""Mg"": 1.0, ""Si"": 2.0, ""O"": 8.0}",328.701,#FFFFFF,monoclinic,"{31,51}",1.38079e-07
Mesaite,CaMn2+5(V2O7)3·12H2O,"{""Ca"": 1.0, ""Mn"": 5.0, ""V"": 6.0, ""O"": 33.0, ""H"": 24.0}",1172.579,#FFFFFF,monoclinic,"{47,55}",9.401e-09
Mesolite,Na2Ca2(Si9Al6)O30·8H2O,"{""Na"": 2.0, ""Ca"": 2.0, ""Si"": 9.0, ""Al"": 6.0, ""O"": 38.0, ""H"": 16.0}",1164.883,#FFFFFF,orthorhombic,"{9,10,14,17}",6.91874e-07
Messelite,Ca2Fe2+(PO4)2·2H2O,"{""Ca"": 2.0, ""Fe"": 1.0, ""P"": 2.0, ""O"": 10.0, ""H"": 4.0}",361.971,#556B2F,triclinic,"{22,34}",5.822e-09
Meta-aluminite,Al2(SO4)(OH)4·5H2O,"{""Al"": 2.0, ""S"": 1.0, ""O"": 13.0, ""H"": 14.0}",308.123,#FFFFFF,unknown,{47},3.003e-09
Meta-alunogen,Al2(SO4)3·14H2O,"{""Al"": 2.0, ""S"": 3.0, ""O"": 26.0, ""H"": 28.0}",594.342,#FFFFFF,unknown,"{25,46}",4.799e-09
Meta-ankoleite,K(UO2)(PO4)·3H2O,"{""K"": 1.0, ""U"": 1.0, ""O"": 9.0, ""P"": 1.0, ""H"": 6.0}",458.141,#FFFFFF,tetragonal,{47},1.5015e-08
Meta-autunite,Ca(UO2)2(PO4)2·6H2O,"{""Ca"": 1.0, ""U"": 2.0, ""O"": 18.0, ""P"": 2.0, ""H"": 12.0}",878.164,#FFFFFF,tetragonal,"{47,49}",2.8002e-08
Metaborite,HBO2,"{""H"": 1.0, ""B"": 1.0, ""O"": 2.0}",43.816,#FFFFFF,cubic,"{25,45}",7.1204e-08
Metacinnabar,HgS,"{""Hg"": 1.0, ""S"": 1.0}",232.65,#A9A9A9,cubic,{33},2.51e-10
Metadelrioite,SrCa(VO3)2(OH)2,"{""Sr"": 1.0, ""Ca"": 1.0, ""V"": 2.0, ""O"": 8.0, ""H"": 2.0}",359.59,#FFFFFF,triclinic,"{47,55}",1.88029e-07
Metaheimite,PbCu2(AsO4)(OH)3,"{""Pb"": 1.0, ""Cu"": 2.0, ""As"": 1.0, ""O"": 7.0, ""H"": 3.0}",524.231,#FFFFFF,monoclinic,{},1e-06
Metaheinrichite,Ba(UO2)2(AsO4)2·8H2O,"{""Ba"": 1.0, ""U"": 2.0, ""O"": 20.0, ""As"": 2.0, ""H"": 16.0}",1099.342,#FFFFFF,monoclinic,{47},1.5015e-07
Metahewettite,CaV5+6O16·3H2O,"{""Ca"": 1.0, ""V"": 6.0, ""O"": 19.0, ""H"": 6.0}",655.759,#FFFFFF,monoclinic,{47},1.5015e-07
Metahohmannite,Fe3+2O(SO4)2·4H2O,"{""Fe"": 2.0, ""O"": 13.0, ""S"": 2.0, ""H"": 8.0}",391.861,#556B2F,triclinic,{47},3.003e-09
Metakahlerite,Fe2+(UO2)2(AsO4)2·8H2O,"{""Fe"": 1.0, ""U"": 2.0, ""O"": 20.0, ""As"": 2.0, ""H"": 16.0}",1017.857,#556B2F,triclinic,{47},1.5015e-07
Metakirchheimerite,Co(UO2)2(AsO4)2·8H2O,"{""Co"": 1.0, ""U"": 2.0, ""O"": 20.0, ""As"": 2.0, ""H"": 16.0}",1020.945,#FFFFFF,triclinic,{47},1.5015e-07
Metalodevite,Zn(UO2)2(AsO4)2·10H2O,"{""Zn"": 1.0, ""U"": 2.0, ""O"": 22.0, ""As"": 2.0, ""H"": 20.0}",1063.422,#FFFFFF,triclinic,{47},1.5015e-07
Metamunirite,NaV5+O3,"{""Na"": 1.0, ""V"": 1.0, ""O"": 3.0}",121.929,#FFFFFF,orthorhombic,"{47,55,56}",2.57959e-07
Metanatroautunite,Na(UO2)(PO4)·3H2O,"{""Na"": 1.0, ""U"": 1.0, ""O"": 9.0, ""P"": 1.0, ""H"": 6.0}",442.033,#FFFFFF,tetragonal,{47},1.5015e-08
Metanovacekite,Mg(UO2)2(AsO4)2·8H2O,"{""Mg"": 1.0, ""U"": 2.0, ""O"": 20.0, ""As"": 2.0, ""H"": 16.0}",986.317,#FFFFFF,tetragonal,{47},1.5015e-07
Metarauchite,Ni(UO2)2(AsO4)2·8H2O,"{""Ni"": 1.0, ""U"": 2.0, ""O"": 20.0, ""As"": 2.0, ""H"": 16.0}",1020.705,#FFFFFF,triclinic,{47},1.5015e-07
Metarossite,CaV5+2O6·2H2O,"{""Ca"": 1.0, ""V"": 2.0, ""O"": 8.0, ""H"": 4.0}",273.986,#FFFFFF,triclinic,"{47,55}",1.88029e-07
Metasaleeite,Mg(UO2)2(PO4)2·8H2O,"{""Mg"": 1.0, ""U"": 2.0, ""O"": 20.0, ""P"": 2.0, ""H"": 16.0}",898.421,#FFFFFF,unknown,{47},1.5015e-08
Metaschoderite,Al2(PO4)(VO4)·6H2O,"{""Al"": 2.0, ""P"": 1.0, ""O"": 14.0, ""V"": 1.0, ""H"": 12.0}",371.962,#FFFFFF,monoclinic,{47},1.5015e-08
Metaschoepite,(UO2)8O2(OH)12·10H2O,"{""U"": 8.0, ""O"": 40.0, ""H"": 32.0}",2576.456,#ADFF2F,orthorhombic,{47},1.5015e-07
Metasideronatrite,Na2Fe3+(SO4)2(OH)·H2O,"{""Na"": 2.0, ""Fe"": 1.0, ""S"": 2.0, ""O"": 10.0, ""H"": 3.0}",328.959,#556B2F,orthorhombic,{47},3.003e-09
Metastibnite,Sb2S3,"{""Sb"": 2.0, ""S"": 3.0}",339.7,#A9A9A9,unknown,"{11,12,14,33,56}",1.2034e-08
Metastudtite,UO4·2H2O,"{""U"": 1.0, ""O"": 6.0, ""H"": 4.0}",338.056,#ADFF2F,orthorhombic,"{47,57}",3.54232e-07
Metaswitzerite,Mn2+3(PO4)2·4H2O,"{""Mn"": 3.0, ""P"": 2.0, ""O"": 12.0, ""H"": 8.0}",426.814,#FFFFFF,monoclinic,"{25,34,56}",6.764e-09
Metatamboite,Fe3+3(OH)(H2O)2(SO4)(Te4+O3)3[Te4+O(OH)2](H2O),"{""Fe"": 3.0, ""O"": 20.0, ""H"": 9.0, ""S"": 1.0, ""Te"": 4.0}",1039.047,#556B2F,monoclinic,{47},3.003e-09
Metathenardite,Na2(SO4),"{""Na"": 2.0, ""S"": 1.0, ""O"": 4.0}",142.036,#FFFF00,hexagonal,{45},4.72e-10
Metatorbernite,Cu(UO2)2(PO4)2·8H2O,"{""Cu"": 1.0, ""U"": 2.0, ""O"": 20.0, ""P"": 2.0, ""H"": 16.0}",937.662,#FFFFFF,monoclinic,{47},1.5015e-08
Metatyuyamunite,Ca(UO2)2(VO4)2·3H2O,"{""Ca"": 1.0, ""U"": 2.0, ""O"": 15.0, ""V"": 2.0, ""H"": 6.0}",864.055,#FFFFFF,orthorhombic,{47},1.5015e-07
Metauramphite,(NH4)2(UO2)2(PO4)2·6H2O,"{""N"": 2.0, ""H"": 20.0, ""U"": 2.0, ""O"": 18.0, ""P"": 2.0}",874.164,#FFFFFF,unknown,{47},1.5015e-08
Metauranocircite,Ba(UO2)2(PO4)2·6H2O,"{""Ba"": 1.0, ""U"": 2.0, ""O"": 18.0, ""P"": 2.0, ""H"": 12.0}",975.416,#FFFFFF,monoclinic,"{21,47}",2.7673e-08
Metauranopilite,(UO2)6(SO4)(OH)10·5H2O,"{""U"": 6.0, ""O"": 31.0, ""S"": 1.0, ""H"": 20.0}",1976.369,#FFFFFF,unknown,"{47,55}",3.761e-09
Metauranospinite,Ca(UO2)2(AsO4)2·8H2O,"{""Ca"": 1.0, ""U"": 2.0, ""O"": 20.0, ""As"": 2.0, ""H"": 16.0}",1002.09,#FFFFFF,unknown,{47},1.5015e-07
Metauroxite,(UO2)2(C2O4)(OH)2(H2O)2,"{""U"": 2.0, ""O"": 12.0, ""C"": 2.0, ""H"": 6.0}",698.118,#FFFFFF,triclinic,"{53,55}",1.23349e-07
Metavanmeersscheite,U(UO2)3(PO4)2(OH)6·2H2O,"{""U"": 4.0, ""O"": 22.0, ""P"": 2.0, ""H"": 10.0}",1376.126,#FFFFFF,orthorhombic,{47},1.5015e-08
Metavanuralite,Al(UO2)2(VO4)2(OH)·8H2O,"{""Al"": 1.0, ""U"": 2.0, ""O"": 21.0, ""V"": 2.0, ""H"": 17.0}",958.041,#FFFFFF,triclinic,{47},1.5015e-07
Metavariscite,Al(PO4)·2H2O,"{""Al"": 1.0, ""P"": 1.0, ""O"": 6.0, ""H"": 4.0}",157.982,#FFFFFF,monoclinic,"{47,57}",3.5423e-08
Metavauxite,Fe2+Al2(PO4)2(OH)2·8H2O,"{""Fe"": 1.0, ""Al"": 2.0, ""P"": 2.0, ""O"": 18.0, ""H"": 18.0}",477.883,#556B2F,monoclinic,{47},1.5015e-08
Metavivianite,Fe2+Fe3+2(PO4)2(OH)2·6H2O,"{""Fe"": 3.0, ""P"": 2.0, ""O"": 16.0, ""H"": 14.0}",499.579,#556B2F,triclinic,"{24,47}",2.8529e-08
Metavoltine,K2Na6Fe2+Fe3+6O2(SO4)12·18H2O,"{""K"": 2.0, ""Na"": 6.0, ""Fe"": 7.0, ""O"": 68.0, ""S"": 12.0, ""H"": 36.0}",2115.991,#556B2F,hexagonal,"{45,47,50,54,55}",5.82e-09
Metazellerite,Ca(UO2)(CO3)2·3H2O,"{""Ca"": 1.0, ""U"": 1.0, ""O"": 11.0, ""C"": 2.0, ""H"": 6.0}",484.167,#FFFFFF,orthorhombic,{47},1.5015e-07
Metazeunerite,Cu(UO2)2(AsO4)2·8H2O,"{""Cu"": 1.0, ""U"": 2.0, ""O"": 20.0, ""As"": 2.0, ""H"": 16.0}",1025.558,#FFFFFF,tetragonal,{47},1.5015e-07
Meyerhofferite,CaB3O3(OH)5·H2O,"{""Ca"": 1.0, ""B"": 3.0, ""O"": 9.0, ""H"": 7.0}",223.555,#FFFFFF,triclinic,{25},4.7619e-08
Meymacite,WO3·2H2O,"{""W"": 1.0, ""O"": 5.0, ""H"": 4.0}",267.867,#FFFFFF,unknown,{47},1.5015e-07
Meyrowitzite,Ca(UO2)(CO3)2·5H2O,"{""Ca"": 1.0, ""U"": 1.0, ""O"": 13.0, ""C"": 2.0, ""H"": 10.0}",520.197,#FFFFFF,monoclinic,{47},1.5015e-07
Mgriite,Cu3AsSe3,"{""Cu"": 3.0, ""As"": 1.0, ""Se"": 3.0}",502.473,#00BFFF,cubic,{33},1.2547e-08
Miargyrite,AgSbS2,"{""Ag"": 1.0, ""Sb"": 1.0, ""S"": 2.0}",293.75,#A9A9A9,monoclinic,{33},2.51e-10
Miassite,Rh17S15,"{""Rh"": 17.0, ""S"": 15.0}",2230.37,#A9A9A9,cubic,"{12,26,33,37}",4.083e-09
Michenerite,PdBiTe,"{""Pd"": 1.0, ""Bi"": 1.0, ""Te"": 1.0}",443.0,#D2B48C,cubic,"{33,37}",8.6621e-08
Microcline,K(AlSi3O8),"{""K"": 1.0, ""Al"": 1.0, ""Si"": 3.0, ""O"": 8.0}",278.327,#FFFFFF,triclinic,"{19,24,26,34,35}",4.9240345e-05
Midbarite,Ca3Mg2(V2Si)O12,"{""Ca"": 3.0, ""Mg"": 2.0, ""V"": 2.0, ""Si"": 1.0, ""O"": 12.0}",490.801,#FFFFFF,cubic,{},1e-06
Middlebackite,Cu2C2O4(OH)2,"{""Cu"": 2.0, ""C"": 2.0, ""O"": 6.0, ""H"": 2.0}",249.124,#FFFFFF,monoclinic,{53},8.547e-08
Miersite,AgI,"{""Ag"": 1.0, ""I"": 1.0}",234.77,#C0C0C0,cubic,{47},1.5015e-07
Miessiite,Pd11Te2Se2,"{""Pd"": 11.0, ""Te"": 2.0, ""Se"": 2.0}",1583.762,#FFFFFF,cubic,"{26,33,37}",1.26621e-07
Miguelromeroite,Mn5(AsO3OH)2(AsO4)2(H2O)4,"{""Mn"": 5.0, ""As"": 4.0, ""O"": 20.0, ""H"": 10.0}",904.438,#FFFFFF,monoclinic,"{47,55}",9.401e-09
Miharaite,PbCu4FeBiS6,"{""Pb"": 1.0, ""Cu"": 4.0, ""Fe"": 1.0, ""Bi"": 1.0, ""S"": 6.0}",918.569,#DAA520,orthorhombic,{33},2.51e-10