name,formula,elements,density,color,crystal_system,dna
Gearksutite,CaAlF4(OH)·H2O,"{""Ca"": 1.0, ""Al"": 1.0, ""F"": 4.0, ""O"": 2.0, ""H"": 3.0}",178.08,#FFFFFF,triclinic,"{""system"": ""triclinic"", ""scale"": [0.7, 1.0, 1.3], ""optical"": {""transparent"": 1, ""refraction"": 1.5, ""birefringence"": 0.01}}"
Gebhardite,Pb8As3+4O11Cl6,"{""Pb"": 8.0, ""As"": 4.0, ""O"": 11.0, ""Cl"": 6.0}",2345.98,#FFFFFF,monoclinic,"{""system"": ""monoclinic"", ""scale"": [0.7, 1.0, 1.3], ""optical"": {""transparent"": 1, ""refraction"": 1.5, ""birefringence"": 0.01}}"
Geerite,Cu8S5,"{""Cu"": 8.0, ""S"": 5.0}",668.7,#A9A9A9,cubic,"{""system"": ""cubic"", ""scale"": [1.0, 1.0, 1.0], ""optical"": {""transparent"": 0, ""refraction"": 0.0, ""birefringence"": 0.0}}"
Gehlenite,Ca2Al(SiAl)O7,"{""Ca"": 2.0, ""Al"": 2.0, ""Si"": 1.0, ""O"": 7.0}",274.21,#FFFFFF,tetragonal,"{""system"": ""tetragonal"", ""scale"": [1.0, 1.0, 1.4], ""optical"": {""transparent"": 1, ""refraction"": 1.5, ""birefringence"": 0.01}}"
Geikielite,MgTiO3,"{""Mg"": 1.0, ""Ti"": 1.0, ""O"": 3.0}",120.18,#FFFFFF,hexagonal,"{""system"": ""hexagonal"", ""scale"": [1.0, 1.0, 1.6], ""optical"": {""transparent"": 1, ""refraction"": 1.5, ""birefringence"": 0.01}}"
Geminite,Cu2+(AsO3OH)·H2O,"{""Cu"": 1.0, ""As"": 1.0, ""O"": 5.0, ""H"": 3.0}",221.49,#FFFFFF,triclinic,"{""system"": ""triclinic"", ""scale"": [0.7, 1.0, 1.3], ""optical"": {""transparent"": 1, ""refraction"": 1.5, ""birefringence"": 0.01}}"
Gengenbachite,KFe3(H2PO4)2(HPO4)4·6H2O,"{""K"": 1.0, ""Fe"": 3.0, ""H"": 20.0, ""P"": 6.0, ""O"": 30.0}",892.63,#556B2F,hexagonal,"{""system"": ""hexagonal"", ""scale"": [1.0, 1.0, 1.6], ""optical"": {""transparent"": 0, ""refraction"": 0.0, ""birefringence"": 0.0}}"
Genkinite,Pt4Sb3,"{""Pt"": 4.0, ""Sb"": 3.0}",1145.6,#A9A9A9,tetragonal,"{""system"": ""tetragonal"", ""scale"": [1.0, 1.0, 1.4], ""optical"": {""transparent"": 0, ""refraction"": 0.0, ""birefringence"": 0.0}}"
Geocronite,Pb14Sb6S23,"{""Pb"": 14.0, ""Sb"": 6.0, ""S"": 23.0}",4368.74,#708090,monoclinic,"{""system"": ""monoclinic"", ""scale"": [0.7, 1.0, 1.3], ""optical"": {""transparent"": 0, ""refraction"": 0.0, ""birefringence"": 0.0}}"
Georgbokiite,Cu5O2(Se4+O3)2Cl2,"{""Cu"": 5.0, ""O"": 8.0, ""Se"": 2.0, ""Cl"": 2.0}",674.57,#FFFFFF,monoclinic,"{""system"": ""monoclinic"", ""scale"": [0.7, 1.0, 1.3], ""optical"": {""transparent"": 1, ""refraction"": 1.5, ""birefringence"": 0.01}}"
Georgechaoite,KNaZrSi3O9·2H2O,"{""K"": 1.0, ""Na"": 1.0, ""Zr"": 1.0, ""Si"": 3.0, ""O"": 11.0, ""H"": 4.0}",417.61,#FFFFFF,orthorhombic,"{""system"": ""orthorhombic"", ""scale"": [0.8, 1.0, 1.2], ""optical"": {""transparent"": 1, ""refraction"": 1.5, ""birefringence"": 0.01}}"
George-ericksenite,Na6CaMg(IO3)6(CrO4)2·12H2O,"{""Na"": 6.0, ""Ca"": 1.0, ""Mg"": 1.0, ""I"": 6.0, ""O"": 38.0, ""Cr"": 2.0, ""H"": 24.0}",1699.92,#FFFFFF,monoclinic,"{""system"": ""monoclinic"", ""scale"": [0.7, 1.0, 1.3], ""optical"": {""transparent"": 1, ""refraction"": 1.5, ""birefringence"": 0.01}}"
Georgerobinsonite,Pb4(CrO4)2(OH)2FCl,"{""Pb"": 4.0, ""Cr"": 2.0, ""O"": 10.0, ""H"": 2.0, ""F"": 1.0, ""Cl"": 1.0}",1149.27,#FFFFFF,orthorhombic,"{""system"": ""orthorhombic"", ""scale"": [0.8, 1.0, 1.2], ""optical"": {""transparent"": 1, ""refraction"": 1.5, ""birefringence"": 0.01}}"
Georgiadesite,Pb4(As3+O3)Cl4(OH),"{""Pb"": 4.0, ""As"": 1.0, ""O"": 4.0, ""Cl"": 4.0, ""H"": 1.0}",1110.53,#FFFFFF,monoclinic,"{""system"": ""monoclinic"", ""scale"": [0.7, 1.0, 1.3], ""optical"": {""transparent"": 1, ""refraction"": 1.5, ""birefringence"": 0.01}}"
Gerhardtite,Cu2(NO3)(OH)3,"{""Cu"": 2.0, ""N"": 1.0, ""O"": 6.0, ""H"": 3.0}",240.13,#FFFFFF,orthorhombic,"{""system"": ""orthorhombic"", ""scale"": [0.8, 1.0, 1.2], ""optical"": {""transparent"": 1, ""refraction"": 1.5, ""birefringence"": 0.01}}"
Germanite,Cu13Fe2Ge2S16,"{""Cu"": 13.0, ""Fe"": 2.0, ""Ge"": 2.0, ""S"": 16.0}",1596.07,#DAA520,cubic,"{""system"": ""cubic"", ""scale"": [1.0, 1.0, 1.0], ""optical"": {""transparent"": 0, ""refraction"": 0.0, ""birefringence"": 0.0}}"
Germanocolusite,Cu13VGe3S16,"{""Cu"": 13.0, ""V"": 1.0, ""Ge"": 3.0, ""S"": 16.0}",1607.94,#A9A9A9,cubic,"{""system"": ""cubic"", ""scale"": [1.0, 1.0, 1.0], ""optical"": {""transparent"": 0, ""refraction"": 0.0, ""birefringence"": 0.0}}"
Gersdorffite,NiAsS,"{""Ni"": 1.0, ""As"": 1.0, ""S"": 1.0}",165.67,#FFD700,cubic,"{""system"": ""cubic"", ""scale"": [1.0, 1.0, 1.0], ""optical"": {""transparent"": 0, ""refraction"": 0.0, ""birefringence"": 0.0}}"
Geschieberite,K2(UO2)(SO4)2·2H2O,"{""K"": 2.0, ""U"": 1.0, ""O"": 12.0, ""S"": 2.0, ""H"": 4.0}",576.38,#FFFFFF,orthorhombic,"{""system"": ""orthorhombic"", ""scale"": [0.8, 1.0, 1.2], ""optical"": {""transparent"": 1, ""refraction"": 1.5, ""birefringence"": 0.01}}"
Getchellite,SbAsS3,"{""Sb"": 1.0, ""As"": 1.0, ""S"": 3.0}",292.86,#FFD700,monoclinic,"{""system"": ""monoclinic"", ""scale"": [0.7, 1.0, 1.3], ""optical"": {""transparent"": 0, ""refraction"": 0.0, ""birefringence"": 0.0}}"
Geuerite,Ag2Tl4Pb4As22S40,"{""Ag"": 2.0, ""Tl"": 4.0, ""Pb"": 4.0, ""As"": 22.0, ""S"": 40.0}",4792.7,#708090,monoclinic,"{""system"": ""monoclinic"", ""scale"": [0.7, 1.0, 1.3], ""optical"": {""transparent"": 0, ""refraction"": 0.0, ""birefringence"": 0.0}}"
Geversite,PtSb2,"{""Pt"": 1.0, ""Sb"": 2.0}",438.6,#A9A9A9,cubic,"{""system"": ""cubic"", ""scale"": [1.0, 1.0, 1.0], ""optical"": {""transparent"": 0, ""refraction"": 0.0, ""birefringence"": 0.0}}"
Ghiaraite,CaCl2·4H2O,"{""Ca"": 1.0, ""Cl"": 2.0, ""H"": 8.0, ""O"": 4.0}",183.04,#FFFFFF,triclinic,"{""system"": ""triclinic"", ""scale"": [0.7, 1.0, 1.3], ""optical"": {""transparent"": 1, ""refraction"": 1.5, ""birefringence"": 0.01}}"
Giacovazzoite,K5Fe3+3O(SO4)6·10H2O,"{""K"": 5.0, ""Fe"": 3.0, ""O"": 35.0, ""S"": 6.0, ""H"": 20.0}",1135.57,#556B2F,monoclinic,"{""system"": ""monoclinic"", ""scale"": [0.7, 1.0, 1.3], ""optical"": {""transparent"": 0, ""refraction"": 0.0, ""birefringence"": 0.0}}"
Gibbsite,Al(OH)3,"{""Al"": 1.0, ""O"": 3.0, ""H"": 3.0}",78.0,#FFFFFF,monoclinic,"{""system"": ""monoclinic"", ""scale"": [0.7, 1.0, 1.3], ""optical"": {""transparent"": 1, ""refraction"": 1.5, ""birefringence"": 0.01}}"
Gilalite,Cu5Si6O17·7H2O,"{""Cu"": 5.0, ""Si"": 6.0, ""O"": 24.0, ""H"": 14.0}",884.4,#FFFFFF,monoclinic,"{""system"": ""monoclinic"", ""scale"": [0.7, 1.0, 1.3], ""optical"": {""transparent"": 1, ""refraction"": 1.5, ""birefringence"": 0.01}}"
Gillardite,Cu3NiCl2(OH)6,"{""Cu"": 3.0, ""Ni"": 1.0, ""Cl"": 2.0, ""O"": 6.0, ""H"": 6.0}",422.29,#FFFFFF,hexagonal,"{""system"": ""hexagonal"", ""scale"": [1.0, 1.0, 1.6], ""optical"": {""transparent"": 1, ""refraction"": 1.5, ""birefringence"": 0.01}}"
Gillespite,BaFe2+Si4O10,"{""Ba"": 1.0, ""Fe"": 1.0, ""Si"": 4.0, ""O"": 10.0}",465.54,#556B2F,orthorhombic,"{""system"": ""orthorhombic"", ""scale"": [0.8, 1.0, 1.2], ""optical"": {""transparent"": 0, ""refraction"": 0.0, ""birefringence"": 0.0}}"
Gilmarite,Cu2+3(AsO4)(OH)3,"{""Cu"": 3.0, ""As"": 1.0, ""O"": 7.0, ""H"": 3.0}",380.59,#FFFFFF,triclinic,"{""system"": ""triclinic"", ""scale"": [0.7, 1.0, 1.3], ""optical"": {""transparent"": 1, ""refraction"": 1.5, ""birefringence"": 0.01}}"
Giniite,Fe2+Fe3+4(PO4)4(OH)2·2H2O,"{""Fe"": 5.0, ""P"": 4.0, ""O"": 20.0, ""H"": 6.0}",729.18,#556B2F,monoclinic,"{""system"": ""monoclinic"", ""scale"": [0.7, 1.0, 1.3], ""optical"": {""transparent"": 0, ""refraction"": 0.0, ""birefringence"": 0.0}}"
Ginorite,Ca2B14O20(OH)6·5H2O,"{""Ca"": 2.0, ""B"": 14.0, ""O"": 31.0, ""H"": 16.0}",743.63,#FFFFFF,,"{""system"": """", ""scale"": [1.0, 1.0, 1.0], ""optical"": {""transparent"": 1, ""refraction"": 1.5, ""birefringence"": 0.01}}"
Giorgiosite,Mg5(CO3)4(OH)2·5H2O,"{""Mg"": 5.0, ""C"": 4.0, ""O"": 19.0, ""H"": 12.0}",485.69,#FFFFFF,,"{""system"": """", ""scale"": [1.0, 1.0, 1.0], ""optical"": {""transparent"": 1, ""refraction"": 1.5, ""birefringence"": 0.01}}"
Girvasite,NaCa2Mg3(PO4)3(CO3)(H2O)6,"{""Na"": 1.0, ""Ca"": 2.0, ""Mg"": 3.0, ""P"": 3.0, ""O"": 21.0, ""C"": 1.0, ""H"": 12.0}",629.1,#FFFFFF,monoclinic,"{""system"": ""monoclinic"", ""scale"": [0.7, 1.0, 1.3], ""optical"": {""transparent"": 1, ""refraction"": 1.5, ""birefringence"": 0.01}}"
Gismondine-Ca,Ca2(Si4Al4)O16·8H2O,"{""Ca"": 2.0, ""Si"": 4.0, ""Al"": 4.0, ""O"": 24.0, ""H"": 16.0}",700.57,#FFFFFF,monoclinic,"{""system"": ""monoclinic"", ""scale"": [0.7, 1.0, 1.3], ""optical"": {""transparent"": 1, ""refraction"": 1.5, ""birefringence"": 0.01}}"
Gismondine-Sr,Sr4(Si8Al8O32)·9H2O,"{""Sr"": 4.0, ""Si"": 8.0, ""Al"": 8.0, ""O"": 41.0, ""H"": 18.0}",1465.18,#FFFFFF,orthorhombic,"{""system"": ""orthorhombic"", ""scale"": [0.8, 1.0, 1.2], ""optical"": {""transparent"": 1, ""refraction"": 1.5, ""birefringence"": 0.01}}"
Gittinsite,CaZrSi2O7,"{""Ca"": 1.0, ""Zr"": 1.0, ""Si"": 2.0, ""O"": 7.0}",299.48,#FFFFFF,monoclinic,"{""system"": ""monoclinic"", ""scale"": [0.7, 1.0, 1.3], ""optical"": {""transparent"": 1, ""refraction"": 1.5, ""birefringence"": 0.01}}"
Giuscaite,Ag2Tl4Pb4As20Sb2S40,"{""Ag"": 2.0, ""Tl"": 4.0, ""Pb"": 4.0, ""As"": 20.0, ""Sb"": 2.0, ""S"": 40.0}",4886.38,#708090,monoclinic,"{""system"": ""monoclinic"", ""scale"": [0.7, 1.0, 1.3], ""optical"": {""transparent"": 0, ""refraction"": 0.0, ""birefringence"": 0.0}}"
Giuseppettite,Na42K16Ca6Si48Al48O192(SO4)10Cl2·5H2O,"{""Na"": 42.0, ""K"": 16.0, ""Ca"": 6.0, ""Si"": 48.0, ""Al"": 48.0, ""O"": 237.0, ""S"": 10.0, ""Cl"": 2.0, ""H"": 10.0}",8668.6,#FFFFFF,hexagonal,"{""system"": ""hexagonal"", ""scale"": [1.0, 1.0, 1.6], ""optical"": {""transparent"": 1, ""refraction"": 1.5, ""birefringence"": 0.01}}"
Gladite,CuPbBi5S9,"{""Cu"": 1.0, ""Pb"": 1.0, ""Bi"": 5.0, ""S"": 9.0}",1604.19,#708090,orthorhombic,"{""system"": ""orthorhombic"", ""scale"": [0.8, 1.0, 1.2], ""optical"": {""transparent"": 0, ""refraction"": 0.0, ""birefringence"": 0.0}}"
Gladiusite,Fe3+2Fe2+4(PO4)(OH)11·H2O,"{""Fe"": 6.0, ""P"": 1.0, ""O"": 16.0, ""H"": 13.0}",635.17,#556B2F,monoclinic,"{""system"": ""monoclinic"", ""scale"": [0.7, 1.0, 1.3], ""optical"": {""transparent"": 0, ""refraction"": 0.0, ""birefringence"": 0.0}}"
Glauberite,Na2Ca(SO4)2,"{""Na"": 2.0, ""Ca"": 1.0, ""S"": 2.0, ""O"": 8.0}",278.18,#FFFFFF,monoclinic,"{""system"": ""monoclinic"", ""scale"": [0.7, 1.0, 1.3], ""optical"": {""transparent"": 1, ""refraction"": 1.5, ""birefringence"": 0.01}}"
Glaukosphaerite,CuNi(CO3)(OH)2,"{""Cu"": 1.0, ""Ni"": 1.0, ""C"": 1.0, ""O"": 5.0, ""H"": 2.0}",216.27,#FFFFFF,monoclinic,"{""system"": ""monoclinic"", ""scale"": [0.7, 1.0, 1.3], ""optical"": {""transparent"": 1, ""refraction"": 1.5, ""birefringence"": 0.01}}"
Glecklerite,Na(C2H3O3),"{""Na"": 1.0, ""C"": 2.0, ""H"": 3.0, ""O"": 3.0}",98.03,#FFFFFF,orthorhombic,"{""system"": ""orthorhombic"", ""scale"": [0.8, 1.0, 1.2], ""optical"": {""transparent"": 1, ""refraction"": 1.5, ""birefringence"": 0.01}}"
Glushinskite,Mg(C2O4)·2H2O,"{""Mg"": 1.0, ""C"": 2.0, ""O"": 6.0, ""H"": 4.0}",148.36,#FFFFFF,monoclinic,"{""system"": ""monoclinic"", ""scale"": [0.7, 1.0, 1.3], ""optical"": {""transparent"": 1, ""refraction"": 1.5, ""birefringence"": 0.01}}"
Gmelinite-Ca,Ca2(Si8Al4)O24·11H2O,"{""Ca"": 2.0, ""Si"": 8.0, ""Al"": 4.0, ""O"": 35.0, ""H"": 22.0}",994.98,#FFFFFF,hexagonal,"{""system"": ""hexagonal"", ""scale"": [1.0, 1.0, 1.6], ""optical"": {""transparent"": 1, ""refraction"": 1.5, ""birefringence"": 0.01}}"
Gmelinite-K,K4(Si8Al4)O24·11H2O,"{""K"": 4.0, ""Si"": 8.0, ""Al"": 4.0, ""O"": 35.0, ""H"": 22.0}",1071.22,#FFFFFF,hexagonal,"{""system"": ""hexagonal"", ""scale"": [1.0, 1.0, 1.6], ""optical"": {""transparent"": 1, ""refraction"": 1.5, ""birefringence"": 0.01}}"
Gmelinite-Na,Na4(Si8Al4)O24·11H2O,"{""Na"": 4.0, ""Si"": 8.0, ""Al"": 4.0, ""O"": 35.0, ""H"": 22.0}",1006.78,#FFFFFF,hexagonal,"{""system"": ""hexagonal"", ""scale"": [1.0, 1.0, 1.6], ""optical"": {""transparent"": 1, ""refraction"": 1.5, ""birefringence"": 0.01}}"
Gobbinsite,Na5(Si11Al5)O32·11H2O,"{""Na"": 5.0, ""Si"": 11.0, ""Al"": 5.0, ""O"": 43.0, ""H"": 22.0}",1269.02,#FFFFFF,orthorhombic,"{""system"": ""orthorhombic"", ""scale"": [0.8, 1.0, 1.2], ""optical"": {""transparent"": 1, ""refraction"": 1.5, ""birefringence"": 0.01}}"
Gobelinite,CoCu4(SO4)2(OH)6·6H2O,"{""Co"": 1.0, ""Cu"": 4.0, ""S"": 2.0, ""O"": 20.0, ""H"": 18.0}",715.39,#FFFFFF,monoclinic,"{""system"": ""monoclinic"", ""scale"": [0.7, 1.0, 1.3], ""optical"": {""transparent"": 1, ""refraction"": 1.5, ""birefringence"": 0.01}}"
Godovikovite,(NH4)Al(SO4)2,"{""N"": 1.0, ""H"": 4.0, ""Al"": 1.0, ""S"": 2.0, ""O"": 8.0}",237.14,#FFFFFF,hexagonal,"{""system"": ""hexagonal"", ""scale"": [1.0, 1.0, 1.6], ""optical"": {""transparent"": 1, ""refraction"": 1.5, ""birefringence"": 0.01}}"
Goedkenite,Sr2Al(PO4)2(OH),"{""Sr"": 2.0, ""Al"": 1.0, ""P"": 2.0, ""O"": 9.0, ""H"": 1.0}",409.17,#FFFFFF,monoclinic,"{""system"": ""monoclinic"", ""scale"": [0.7, 1.0, 1.3], ""optical"": {""transparent"": 1, ""refraction"": 1.5, ""birefringence"": 0.01}}"
Goethite,FeO(OH),"{""Fe"": 1.0, ""O"": 2.0, ""H"": 1.0}",88.86,#8B4513,orthorhombic,"{""system"": ""orthorhombic"", ""scale"": [0.8, 1.0, 1.2], ""optical"": {""transparent"": 0, ""refraction"": 0.0, ""birefringence"": 0.0}}"
Gold,Au,"{""Au"": 1.0}",196.97,#FFD700,cubic,"{""system"": ""cubic"", ""scale"": [1.0, 1.0, 1.0], ""optical"": {""transparent"": 0, ""refraction"": 0.0, ""birefringence"": 0.0}}"
Goldichite,KFe3+(SO4)2·4H2O,"{""K"": 1.0, ""Fe"": 1.0, ""S"": 2.0, ""O"": 12.0, ""H"": 8.0}",359.13,#556B2F,monoclinic,"{""system"": ""monoclinic"", ""scale"": [0.7, 1.0, 1.3], ""optical"": {""transparent"": 0, ""refraction"": 0.0, ""birefringence"": 0.0}}"
Goldmanite,Ca3V3+2(SiO4)3,"{""Ca"": 3.0, ""V"": 2.0, ""Si"": 3.0, ""O"": 12.0}",498.39,#FFFFFF,cubic,"{""system"": ""cubic"", ""scale"": [1.0, 1.0, 1.0], ""optical"": {""transparent"": 1, ""refraction"": 1.5, ""birefringence"": 0.0}}"
Goldquarryite,CuCd2Al3(PO4)4F3·10H2O,"{""Cu"": 1.0, ""Cd"": 2.0, ""Al"": 3.0, ""P"": 4.0, ""O"": 26.0, ""F"": 3.0, ""H"": 20.0}",986.35,#FFFFFF,triclinic,"{""system"": ""triclinic"", ""scale"": [0.7, 1.0, 1.3], ""optical"": {""transparent"": 1, ""refraction"": 1.5, ""birefringence"": 0.01}}"
Goldschmidtite,KNbO3,"{""K"": 1.0, ""Nb"": 1.0, ""O"": 3.0}",180.01,#FFFFFF,cubic,"{""system"": ""cubic"", ""scale"": [1.0, 1.0, 1.0], ""optical"": {""transparent"": 1, ""refraction"": 1.5, ""birefringence"": 0.0}}"
Golyshevite,Na10Ca9Zr3Fe2SiNb(Si3O9)2(Si9O27)2(OH)3(CO3)·H2O,"{""Na"": 10.0, ""Ca"": 9.0, ""Zr"": 3.0, ""Fe"": 2.0, ""Si"": 25.0, ""Nb"": 1.0, ""O"": 79.0, ""H"": 5.0, ""C"": 1.0}",3052.19,#556B2F,hexagonal,"{""system"": ""hexagonal"", ""scale"": [1.0, 1.0, 1.6], ""optical"": {""transparent"": 0, ""refraction"": 0.0, ""birefringence"": 0.0}}"
Goosecreekite,Ca(Si6Al2)O16·5H2O,"{""Ca"": 1.0, ""Si"": 6.0, ""Al"": 2.0, ""O"": 21.0, ""H"": 10.0}",608.66,#FFFFFF,monoclinic,"{""system"": ""monoclinic"", ""scale"": [0.7, 1.0, 1.3], ""optical"": {""transparent"": 1, ""refraction"": 1.5, ""birefringence"": 0.01}}"
Gorceixite,BaAl3(PO4)(PO3OH)(OH)6,"{""Ba"": 1.0, ""Al"": 3.0, ""P"": 2.0, ""O"": 14.0, ""H"": 7.0}",511.27,#FFFFFF,hexagonal,"{""system"": ""hexagonal"", ""scale"": [1.0, 1.0, 1.6], ""optical"": {""transparent"": 1, ""refraction"": 1.5, ""birefringence"": 0.01}}"
Gordonite,MgAl2(PO4)2(OH)2·8H2O,"{""Mg"": 1.0, ""Al"": 2.0, ""P"": 2.0, ""O"": 18.0, ""H"": 18.0}",446.35,#FFFFFF,triclinic,"{""system"": ""triclinic"", ""scale"": [0.7, 1.0, 1.3], ""optical"": {""transparent"": 1, ""refraction"": 1.5, ""birefringence"": 0.01}}"
Gorerite,CaAlFe3+11O19,"{""Ca"": 1.0, ""Al"": 1.0, ""Fe"": 11.0, ""O"": 19.0}",985.41,#556B2F,hexagonal,"{""system"": ""hexagonal"", ""scale"": [1.0, 1.0, 1.6], ""optical"": {""transparent"": 0, ""refraction"": 0.0, ""birefringence"": 0.0}}"
Gorgeyite,K2Ca5(SO4)6·H2O,"{""K"": 2.0, ""Ca"": 5.0, ""S"": 6.0, ""O"": 25.0, ""H"": 2.0}",872.98,#FFFFFF,monoclinic,"{""system"": ""monoclinic"", ""scale"": [0.7, 1.0, 1.3], ""optical"": {""transparent"": 1, ""refraction"": 1.5, ""birefringence"": 0.01}}"
Gormanite,Fe2+3Al4(PO4)4(OH)6·2H2O,"{""Fe"": 3.0, ""Al"": 4.0, ""P"": 4.0, ""O"": 24.0, ""H"": 10.0}",793.43,#556B2F,triclinic,"{""system"": ""triclinic"", ""scale"": [0.7, 1.0, 1.3], ""optical"": {""transparent"": 0, ""refraction"": 0.0, ""birefringence"": 0.0}}"
Gortdrumite,Cu24Fe2Hg9S23,"{""Cu"": 24.0, ""Fe"": 2.0, ""Hg"": 9.0, ""S"": 23.0}",4179.59,#DAA520,orthorhombic,"{""system"": ""orthorhombic"", ""scale"": [0.8, 1.0, 1.2], ""optical"": {""transparent"": 0, ""refraction"": 0.0, ""birefringence"": 0.0}}"
Goryainovite,Ca2(PO4)Cl,"{""Ca"": 2.0, ""P"": 1.0, ""O"": 4.0, ""Cl"": 1.0}",210.58,#FFFFFF,orthorhombic,"{""system"": ""orthorhombic"", ""scale"": [0.8, 1.0, 1.2], ""optical"": {""transparent"": 1, ""refraction"": 1.5, ""birefringence"": 0.01}}"
Gottardiite,Na3Mg3Ca5Al19Si117O272·93H2O,"{""Na"": 3.0, ""Mg"": 3.0, ""Ca"": 5.0, ""Al"": 19.0, ""Si"": 117.0, ""O"": 365.0, ""H"": 186.0}",10168.94,#FFFFFF,orthorhombic,"{""system"": ""orthorhombic"", ""scale"": [0.8, 1.0, 1.2], ""optical"": {""transparent"": 1, ""refraction"": 1.5, ""birefringence"": 0.01}}"
Gottlobite,CaMg(VO4)(OH),"{""Ca"": 1.0, ""Mg"": 1.0, ""V"": 1.0, ""O"": 5.0, ""H"": 1.0}",196.34,#FFFFFF,orthorhombic,"{""system"": ""orthorhombic"", ""scale"": [0.8, 1.0, 1.2], ""optical"": {""transparent"": 1, ""refraction"": 1.5, ""birefringence"": 0.01}}"
Gotzenite,Ca4NaCa2Ti(Si2O7)2(OF)F2,"{""Ca"": 6.0, ""Na"": 1.0, ""Ti"": 1.0, ""Si"": 4.0, ""O"": 15.0, ""F"": 3.0}",720.7,#FFFFFF,triclinic,"{""system"": ""triclinic"", ""scale"": [0.7, 1.0, 1.3], ""optical"": {""transparent"": 1, ""refraction"": 1.5, ""birefringence"": 0.01}}"
Goudeyite,Cu6Al(AsO4)3(OH)6·3H2O,"{""Cu"": 6.0, ""Al"": 1.0, ""As"": 3.0, ""O"": 21.0, ""H"": 12.0}",981.14,#FFFFFF,hexagonal,"{""system"": ""hexagonal"", ""scale"": [1.0, 1.0, 1.6], ""optical"": {""transparent"": 1, ""refraction"": 1.5, ""birefringence"": 0.01}}"
Gowerite,Ca[B5O8(OH)][B(OH)3]·3H2O,"{""Ca"": 1.0, ""B"": 6.0, ""O"": 15.0, ""H"": 10.0}",355.02,#FFFFFF,monoclinic,"{""system"": ""monoclinic"", ""scale"": [0.7, 1.0, 1.3], ""optical"": {""transparent"": 1, ""refraction"": 1.5, ""birefringence"": 0.01}}"
Goyazite,SrAl3(PO4)(PO3OH)(OH)6,"{""Sr"": 1.0, ""Al"": 3.0, ""P"": 2.0, ""O"": 14.0, ""H"": 7.0}",461.56,#FFFFFF,hexagonal,"{""system"": ""hexagonal"", ""scale"": [1.0, 1.0, 1.6], ""optical"": {""transparent"": 1, ""refraction"": 1.5, ""birefringence"": 0.01}}"
Graemite,Cu2+(Te4+O3)·H2O,"{""Cu"": 1.0, ""Te"": 1.0, ""O"": 4.0, ""H"": 2.0}",257.17,#FFFFFF,orthorhombic,"{""system"": ""orthorhombic"", ""scale"": [0.8, 1.0, 1.2], ""optical"": {""transparent"": 1, ""refraction"": 1.5, ""birefringence"": 0.01}}"
Graeserite,Fe3+4Ti3As3+O13(OH),"{""Fe"": 4.0, ""Ti"": 3.0, ""As"": 1.0, ""O"": 14.0, ""H"": 1.0}",666.94,#556B2F,monoclinic,"{""system"": ""monoclinic"", ""scale"": [0.7, 1.0, 1.3], ""optical"": {""transparent"": 0, ""refraction"": 0.0, ""birefringence"": 0.0}}"
Graftonite,Fe2+Fe2+2(PO4)2,"{""Fe"": 3.0, ""P"": 2.0, ""O"": 8.0}",357.49,#8B4513,monoclinic,"{""system"": ""monoclinic"", ""scale"": [0.7, 1.0, 1.3], ""optical"": {""transparent"": 0, ""refraction"": 0.0, ""birefringence"": 0.0}}"
Graftonite-(Ca),CaFe2+2(PO4)2,"{""Ca"": 1.0, ""Fe"": 2.0, ""P"": 2.0, ""O"": 8.0}",341.72,#556B2F,monoclinic,"{""system"": ""monoclinic"", ""scale"": [0.7, 1.0, 1.3], ""optical"": {""transparent"": 0, ""refraction"": 0.0, ""birefringence"": 0.0}}"
Grahampearsonite,Ca2P2O7,"{""Ca"": 2.0, ""P"": 2.0, ""O"": 7.0}",254.1,#FFFFFF,tetragonal,"{""system"": ""tetragonal"", ""scale"": [1.0, 1.0, 1.4], ""optical"": {""transparent"": 1, ""refraction"": 1.5, ""birefringence"": 0.01}}"
Grammatikopoulosite,NiVP,"{""Ni"": 1.0, ""V"": 1.0, ""P"": 1.0}",140.6,#7FFF00,orthorhombic,"{""system"": ""orthorhombic"", ""scale"": [0.8, 1.0, 1.2], ""optical"": {""transparent"": 0, ""refraction"": 0.0, ""birefringence"": 0.0}}"