name,formula,elements,density,color,crystal,pm_ids,gacha_weight
Abellaite,NaPb2(CO3)2(OH),"{""Na"": 1.0, ""Pb"": 2.0, ""C"": 2.0, ""O"": 7.0, ""H"": 1.0}",574.413,#FFFFFF,hexagonal,{47},1998.0
Abelsonite,NiC31H32N4,"{""Ni"": 1.0, ""C"": 31.0, ""H"": 32.0, ""N"": 4.0}",519.318,#FFFFFF,triclinic,"{47,50}",2271.0
Abenakiite-(Ce),Na26Ce6(Si6O18)(PO4)6(CO3)6(SO2)O,"{""Na"": 26.0, ""Ce"": 6.0, ""Si"": 6.0, ""O"": 63.0, ""P"": 6.0, ""C"": 6.0, ""S"": 1.0}",2904.877,#FFFFFF,hexagonal,{35},726.0
Abernathyite,K(UO2)(AsO4)·3H2O,"{""K"": 1.0, ""U"": 1.0, ""O"": 9.0, ""As"": 1.0, ""H"": 6.0}",502.089,#FFFFFF,tetragonal,{47},1998.0
Abuite,CaAl2(PO4)2F2,"{""Ca"": 1.0, ""Al"": 2.0, ""P"": 2.0, ""O"": 8.0, ""F"": 2.0}",321.978,#FFFFFF,orthorhombic,{23},398.0
Acanthite,Ag2S,"{""Ag"": 2.0, ""S"": 1.0}",247.8,#A9A9A9,monoclinic,"{33,49}",874.0
Acetamide,CH3CONH2,"{""C"": 2.0, ""H"": 5.0, ""O"": 1.0, ""N"": 1.0}",59.068,#FFFFFF,hexagonal,{54},234.0
Achalaite,Fe2+TiNb2O8,"{""Fe"": 1.0, ""Ti"": 1.0, ""Nb"": 2.0, ""O"": 8.0}",417.516,#556B2F,monoclinic,{34},564.0
Achavalite,FeSe,"{""Fe"": 1.0, ""Se"": 1.0}",134.816,#8B4513,hexagonal,{33},797.0
Acuminite,SrAlF4(OH)·H2O,"{""Sr"": 1.0, ""Al"": 1.0, ""F"": 4.0, ""O"": 2.0, ""H"": 3.0}",225.616,#FFFFFF,monoclinic,{25},210.0
Adachiite,CaFe2+3Al6(Si5AlO18)(BO3)3(OH)3(OH),"{""Ca"": 1.0, ""Fe"": 3.0, ""Al"": 7.0, ""Si"": 5.0, ""O"": 31.0, ""B"": 3.0, ""H"": 4.0}",1069.343,#556B2F,hexagonal,{34},564.0
Adamsite-(Y),NaY(CO3)2·6H2O,"{""Na"": 1.0, ""Y"": 1.0, ""C"": 2.0, ""O"": 12.0, ""H"": 12.0}",340.002,#FFFFFF,triclinic,"{23,35}",1124.0
Adanite,Pb2(Te4+O3)(SO4),"{""Pb"": 2.0, ""Te"": 1.0, ""O"": 7.0, ""S"": 1.0}",686.053,#FFFFFF,monoclinic,{47},1998.0
Addibischoffite,Ca2Al6Al6O20,"{""Ca"": 2.0, ""Al"": 12.0, ""O"": 20.0}",723.92,#FFFFFF,triclinic,{3},48.0
Adelite,CaMg(AsO4)(OH),"{""Ca"": 1.0, ""Mg"": 1.0, ""As"": 1.0, ""O"": 5.0, ""H"": 1.0}",220.308,#FFFFFF,orthorhombic,"{32,47}",2410.0
Admontite,MgB6O10·7H2O,"{""Mg"": 1.0, ""B"": 6.0, ""O"": 17.0, ""H"": 14.0}",375.26,#FFFFFF,monoclinic,{25},210.0
Adolfpateraite,K(UO2)(SO4)(OH)(H2O),"{""K"": 1.0, ""U"": 1.0, ""O"": 8.0, ""S"": 1.0, ""H"": 3.0}",440.204,#FFFFFF,monoclinic,"{47,55}",2262.0
Adranosite,(NH4)4NaAl2(SO4)4Cl(OH)2,"{""N"": 4.0, ""H"": 18.0, ""Na"": 1.0, ""Al"": 2.0, ""S"": 4.0, ""O"": 18.0, ""Cl"": 1.0}",602.798,#FFFFFF,tetragonal,"{45,55}",688.0
Adranosite-(Fe),(NH4)4NaFe2(SO4)4Cl(OH)2,"{""N"": 4.0, ""H"": 18.0, ""Na"": 1.0, ""Fe"": 2.0, ""S"": 4.0, ""O"": 18.0, ""Cl"": 1.0}",660.524,#556B2F,tetragonal,{45},424.0
Adrianite,Ca12(Al4Mg3Si7)O32Cl6,"{""Ca"": 12.0, ""Al"": 4.0, ""Mg"": 3.0, ""Si"": 7.0, ""O"": 32.0, ""Cl"": 6.0}",1583.042,#FFFFFF,cubic,{6},205.0
Aegirine,NaFe3+Si2O6,"{""Na"": 1.0, ""Fe"": 1.0, ""Si"": 2.0, ""O"": 6.0}",230.999,#556B2F,monoclinic,"{7,19,23,26,35,36,39,40,51}",2448.0
Aenigmatite,Na4[Fe2+10Ti2]O4[Si12O36],"{""Na"": 4.0, ""Fe"": 10.0, ""Ti"": 2.0, ""O"": 40.0, ""Si"": 12.0}",1723.124,#556B2F,triclinic,"{6,9,19,20,35,36}",1537.0
Aeschynite-(Ce),Ce(TiNb)O6,"{""Ce"": 1.0, ""Ti"": 1.0, ""Nb"": 1.0, ""O"": 6.0}",376.887,#FFFFFF,orthorhombic,"{19,34,35,36}",1724.0
Aeschynite-(Nd),Nd(TiNb)O6,"{""Nd"": 1.0, ""Ti"": 1.0, ""Nb"": 1.0, ""O"": 6.0}",381.007,#FFFFFF,orthorhombic,{34},564.0
Aeschynite-(Y),Y(TiNb)O6,"{""Y"": 1.0, ""Ti"": 1.0, ""Nb"": 1.0, ""O"": 6.0}",325.673,#FFFFFF,orthorhombic,"{34,36}",855.0
Afmite,Al3(OH)4(H2O)3(PO4)(PO3OH)·H2O,"{""Al"": 3.0, ""O"": 16.0, ""H"": 13.0, ""P"": 2.0}",411.982,#FFFFFF,triclinic,"{21,34,47}",2641.0
Afwillite,Ca3[SiO4][SiO2(OH)2]·2H2O,"{""Ca"": 3.0, ""Si"": 2.0, ""O"": 10.0, ""H"": 6.0}",342.442,#FFFFFF,triclinic,"{31,51}",484.0
Agaite,Pb3Cu2+Te6+O5(OH)2(CO3),"{""Pb"": 3.0, ""Cu"": 1.0, ""Te"": 1.0, ""O"": 10.0, ""H"": 2.0, ""C"": 1.0}",986.763,#FFFFFF,orthorhombic,{47},1998.0
Agardite-(Ce),CeCu2+6(AsO4)3(OH)6·3H2O,"{""Ce"": 1.0, ""Cu"": 6.0, ""As"": 3.0, ""O"": 21.0, ""H"": 12.0}",1094.237,#FFFFFF,hexagonal,{47},1998.0
Agardite-(La),LaCu2+6(AsO4)3(OH)6·3H2O,"{""La"": 1.0, ""Cu"": 6.0, ""As"": 3.0, ""O"": 21.0, ""H"": 12.0}",1093.027,#FFFFFF,hexagonal,{47},1998.0
Agardite-(Nd),NdCu2+6(AsO4)3(OH)6·3H2O,"{""Nd"": 1.0, ""Cu"": 6.0, ""As"": 3.0, ""O"": 21.0, ""H"": 12.0}",1098.357,#FFFFFF,hexagonal,{47},1998.0
Agardite-(Y),YCu2+6(AsO4)3(OH)6·3H2O,"{""Y"": 1.0, ""Cu"": 6.0, ""As"": 3.0, ""O"": 21.0, ""H"": 12.0}",1043.023,#FFFFFF,hexagonal,{47},1998.0
Agrellite,NaCa2Si4O10F,"{""Na"": 1.0, ""Ca"": 2.0, ""Si"": 4.0, ""O"": 10.0, ""F"": 1.0}",394.474,#FFFFFF,triclinic,{35},726.0
Agricolaite,K4(UO2)(CO3)3,"{""K"": 4.0, ""U"": 1.0, ""O"": 11.0, ""C"": 3.0}",606.444,#FFFFFF,monoclinic,{47},1998.0
Agrinierite,K2Ca[(UO2)3O3(OH)2]2·5H2O,"{""K"": 2.0, ""Ca"": 1.0, ""U"": 6.0, ""O"": 27.0, ""H"": 14.0}",1992.539,#FFFFFF,orthorhombic,{47},1998.0
Aguilarite,Ag4SeS,"{""Ag"": 4.0, ""Se"": 1.0, ""S"": 1.0}",542.511,#A9A9A9,monoclinic,{33},797.0
Aheylite,Fe2+Al6(PO4)4(OH)8·4H2O,"{""Fe"": 1.0, ""Al"": 6.0, ""P"": 4.0, ""O"": 28.0, ""H"": 16.0}",805.733,#556B2F,triclinic,{47},1998.0
Ahlfeldite,Ni(SeO3)·2H2O,"{""Ni"": 1.0, ""Se"": 1.0, ""O"": 5.0, ""H"": 4.0}",221.691,#FFFFFF,monoclinic,{47},1998.0
Ahrensite,SiFe2O4,"{""Si"": 1.0, ""Fe"": 2.0, ""O"": 4.0}",203.771,#8B4513,cubic,{6},205.0
Aikinite,CuPbBiS3,"{""Cu"": 1.0, ""Pb"": 1.0, ""Bi"": 1.0, ""S"": 3.0}",575.906,#708090,orthorhombic,{33},797.0
Aiolosite,Na2(Na2Bi)(SO4)3Cl,"{""Na"": 4.0, ""Bi"": 1.0, ""S"": 3.0, ""O"": 12.0, ""Cl"": 1.0}",624.558,#FFFFFF,hexagonal,{45},424.0
Airdite,Sr(V4+O)2(PO4)2·4H2O,"{""Sr"": 1.0, ""V"": 2.0, ""O"": 14.0, ""P"": 2.0, ""H"": 8.0}",483.502,#FFFFFF,monoclinic,{47},1998.0
Ajoite,K3Cu2+20Al3Si29O76(OH)16·8H2O,"{""K"": 3.0, ""Cu"": 20.0, ""Al"": 3.0, ""Si"": 29.0, ""O"": 100.0, ""H"": 32.0}",3915.781,#FFFFFF,triclinic,{47},1998.0
Akaogiite,TiO2,"{""Ti"": 1.0, ""O"": 2.0}",79.865,#FFFFFF,monoclinic,{30},16.0
Akdalaite,Al5O7(OH),"{""Al"": 5.0, ""O"": 8.0, ""H"": 1.0}",263.91,#FFFFFF,orthorhombic,{23},398.0
Akermanite,Ca2MgSi2O7,"{""Ca"": 2.0, ""Mg"": 1.0, ""Si"": 2.0, ""O"": 7.0}",272.624,#FFFFFF,tetragonal,"{3,6,8,31,35,36,40,51}",2166.0
Akimotoite,MgSiO3,"{""Mg"": 1.0, ""Si"": 1.0, ""O"": 3.0}",100.387,#FFFFFF,hexagonal,{6},205.0
Aklimaite,Ca4[Si2O5(OH)2](OH)4·5H2O,"{""Ca"": 4.0, ""Si"": 2.0, ""O"": 16.0, ""H"": 16.0}",488.594,#FFFFFF,monoclinic,{10},107.0
Akopovaite,Al4Li2(OH)12(CO3)(H2O)3,"{""Al"": 4.0, ""Li"": 2.0, ""O"": 18.0, ""H"": 18.0, ""C"": 1.0}",439.945,#FFFFFF,monoclinic,{48},71.0
Aksaite,MgB6O7(OH)6·2H2O,"{""Mg"": 1.0, ""B"": 6.0, ""O"": 15.0, ""H"": 10.0}",339.23,#FFFFFF,orthorhombic,{25},210.0
Aktashite,Cu6Hg3As4S12,"{""Cu"": 6.0, ""Hg"": 3.0, ""As"": 4.0, ""S"": 12.0}",1667.454,#FFD700,hexagonal,{33},797.0
Alacranite,As8S9,"{""As"": 8.0, ""S"": 9.0}",887.916,#FFD700,monoclinic,"{11,12,33,50,54}",1469.0
Alamosite,PbSiO3,"{""Pb"": 1.0, ""Si"": 1.0, ""O"": 3.0}",283.282,#FFFFFF,monoclinic,{47},1998.0
Alarsite,Al(AsO4),"{""Al"": 1.0, ""As"": 1.0, ""O"": 4.0}",165.9,#808080,hexagonal,{45},424.0
Albertiniite,Fe2+(SO3)·3H2O,"{""Fe"": 1.0, ""S"": 1.0, ""O"": 6.0, ""H"": 6.0}",189.947,#556B2F,monoclinic,{47},1998.0
Albite,Na(AlSi3O8),"{""Na"": 1.0, ""Al"": 1.0, ""Si"": 3.0, ""O"": 8.0}",262.219,#FFFFFF,monoclinic,"{4,5,7,9,10,16,17,19,22,23,24,26,34,35,40,43,45,51}",3914.0
Albrechtschraufite,MgCa4F2[UO2(CO3)3]2·17-18H2O,"{""Mg"": 1.0, ""Ca"": 4.0, ""F"": 2.0, ""U"": 2.0, ""O"": 40.0, ""C"": 6.0, ""H"": 36.0}",1446.987,#FFFFFF,triclinic,"{47,55}",2262.0
Alburnite,Ag8GeTe2S4,"{""Ag"": 8.0, ""Ge"": 1.0, ""Te"": 2.0, ""S"": 4.0}",1319.03,#A9A9A9,cubic,{33},797.0
Alcaparrosaite,K3Ti4+Fe3+(SO4)4O(H2O)2,"{""K"": 3.0, ""Ti"": 1.0, ""Fe"": 1.0, ""S"": 4.0, ""O"": 19.0, ""H"": 4.0}",657.259,#556B2F,monoclinic,{47},1998.0
Aldermanite,[Mg(H2O)6][Na(H2O)2Al3(PO4)2(OH)6]·H2O,"{""Mg"": 1.0, ""H"": 24.0, ""O"": 23.0, ""Na"": 1.0, ""Al"": 3.0, ""P"": 2.0}",582.358,#FFFFFF,monoclinic,"{31,47}",2354.0
Aleksite,PbBi2Te2S2,"{""Pb"": 1.0, ""Bi"": 2.0, ""Te"": 2.0, ""S"": 2.0}",944.48,#708090,hexagonal,{33},797.0
Alexearlite,Hg3(MoO4)S2,"{""Hg"": 3.0, ""Mo"": 1.0, ""O"": 4.0, ""S"": 2.0}",825.836,#FFFFFF,orthorhombic,{},1.0
Alexkhomyakovite,K6(Ca2Na)(CO3)5Cl·6H2O,"{""K"": 6.0, ""Ca"": 2.0, ""Na"": 1.0, ""C"": 5.0, ""O"": 21.0, ""Cl"": 1.0, ""H"": 12.0}",781.314,#FFFFFF,hexagonal,{35},726.0
Alflarsenite,NaCa2Be3Si4O13(OH)·2H2O,"{""Na"": 1.0, ""Ca"": 2.0, ""Be"": 3.0, ""Si"": 4.0, ""O"": 16.0, ""H"": 5.0}",503.5466,#FFFFFF,monoclinic,{19},143.0
Alforsite,Ba5(PO4)3Cl,"{""Ba"": 5.0, ""P"": 3.0, ""O"": 12.0, ""Cl"": 1.0}",1007.01,#FFFFFF,hexagonal,"{26,51}",378.0
Alfredcasparite,Sr2TiO(Si2O7),"{""Sr"": 2.0, ""Ti"": 1.0, ""O"": 8.0, ""Si"": 2.0}",407.269,#FFFFFF,tetragonal,{},1.0
Alfredopetrovite,Al2(Se4+O3)3·6H2O,"{""Al"": 2.0, ""Se"": 3.0, ""O"": 15.0, ""H"": 12.0}",542.958,#FFFFFF,hexagonal,{47},1998.0
Alfredstelznerite,Ca4(H2O)4[B4O4(OH)6]4(H2O)15,"{""Ca"": 4.0, ""H"": 62.0, ""O"": 59.0, ""B"": 16.0}",1339.709,#FFFFFF,orthorhombic,{25},210.0
Alicewilsonite-(YCe),Na2Sr2YCe(CO3)6·3H2O,"{""Na"": 2.0, ""Sr"": 2.0, ""Y"": 1.0, ""Ce"": 1.0, ""C"": 6.0, ""O"": 21.0, ""H"": 6.0}",864.339,#FFFFFF,triclinic,{35},726.0
Alicewilsonite-(YLa),Na2Sr2YLa(CO3)6·3H2O,"{""Na"": 2.0, ""Sr"": 2.0, ""Y"": 1.0, ""La"": 1.0, ""C"": 6.0, ""O"": 21.0, ""H"": 6.0}",863.129,#FFFFFF,triclinic,{35},726.0
Allanite-(Ce),CaCe(Al2Fe2+)[Si2O7][SiO4]O(OH),"{""Ca"": 1.0, ""Ce"": 1.0, ""Al"": 2.0, ""Fe"": 1.0, ""Si"": 3.0, ""O"": 13.0, ""H"": 1.0}",583.257,#556B2F,monoclinic,"{8,19,26,31,34,35,36,40}",2742.0
Allanite-(La),CaLa(Al2Fe2+)[Si2O7][SiO4]O(OH),"{""Ca"": 1.0, ""La"": 1.0, ""Al"": 2.0, ""Fe"": 1.0, ""Si"": 3.0, ""O"": 13.0, ""H"": 1.0}",582.047,#556B2F,monoclinic,"{8,19,35}",962.0
Allanite-(Nd),CaNd(Al2Fe2+)[Si2O7][SiO4]O(OH),"{""Ca"": 1.0, ""Nd"": 1.0, ""Al"": 2.0, ""Fe"": 1.0, ""Si"": 3.0, ""O"": 13.0, ""H"": 1.0}",587.377,#556B2F,monoclinic,{8},93.0
Allanite-(Sm),CaSm(Al2Fe2+)(Si2O7)(SiO4)O(OH),"{""Ca"": 1.0, ""Sm"": 1.0, ""Al"": 2.0, ""Fe"": 1.0, ""Si"": 3.0, ""O"": 13.0, ""H"": 1.0}",593.497,#556B2F,monoclinic,{},1.0
Allanite-(Y),CaY(Al2Fe2+)(Si2O7)(SiO4)O(OH),"{""Ca"": 1.0, ""Y"": 1.0, ""Al"": 2.0, ""Fe"": 1.0, ""Si"": 3.0, ""O"": 13.0, ""H"": 1.0}",532.043,#556B2F,monoclinic,"{8,19,34,35}",1526.0
Allanpringite,Fe3+3(PO4)2(OH)3·5H2O,"{""Fe"": 3.0, ""P"": 2.0, ""O"": 16.0, ""H"": 13.0}",498.571,#556B2F,monoclinic,{47},1998.0
Allantoin,C4H6N4O3,"{""C"": 4.0, ""H"": 6.0, ""N"": 4.0, ""O"": 3.0}",158.117,#FFFFFF,monoclinic,{52},72.0
Allendeite,Sc4Zr3O12,"{""Sc"": 4.0, ""Zr"": 3.0, ""O"": 12.0}",645.484,#FFFFFF,hexagonal,{3},48.0
Allochalcoselite,Cu1+Cu2+5PbO2(SeO3)2Cl5,"{""Cu"": 6.0, ""Pb"": 1.0, ""O"": 8.0, ""Se"": 2.0, ""Cl"": 5.0}",1051.66,#FFFFFF,monoclinic,{45},424.0
Alloclasite,CoAsS,"{""Co"": 1.0, ""As"": 1.0, ""S"": 1.0}",165.915,#FFD700,monoclinic,"{23,33}",1195.0
Almandine,Fe2+3Al2(SiO4)3,"{""Fe"": 3.0, ""Al"": 2.0, ""Si"": 3.0, ""O"": 12.0}",497.742,#556B2F,cubic,"{8,19,26,36,38,40}",1204.0
Alpersite,Mg(SO4)·7H2O,"{""Mg"": 1.0, ""S"": 1.0, ""O"": 11.0, ""H"": 14.0}",246.466,#FFFFFF,monoclinic,"{45,47,55}",2686.0
Alstonite,BaCa(CO3)2,"{""Ba"": 1.0, ""Ca"": 1.0, ""C"": 2.0, ""O"": 6.0}",297.424,#FFFFFF,hexagonal,"{23,32,36}",1101.0
Altaite,PbTe,"{""Pb"": 1.0, ""Te"": 1.0}",334.8,#FFFFFF,cubic,"{6,33}",1002.0
Althupite,AlTh(UO2)7(PO4)4O2(OH)5·15H2O,"{""Al"": 1.0, ""Th"": 1.0, ""U"": 7.0, ""O"": 52.0, ""P"": 4.0, ""H"": 35.0}",2916.356,#FFFFFF,triclinic,{47},1998.0
Altisite,Na3K6Ti2Al2Si8O26Cl3,"{""Na"": 3.0, ""K"": 6.0, ""Ti"": 2.0, ""Al"": 2.0, ""Si"": 8.0, ""O"": 26.0, ""Cl"": 3.0}",1200.26,#FFFFFF,monoclinic,{35},726.0
Aluminite,Al2(SO4)(OH)4·7H2O,"{""Al"": 2.0, ""S"": 1.0, ""O"": 15.0, ""H"": 18.0}",344.153,#FFFFFF,monoclinic,"{21,45,47,50,54}",3008.0
Aluminium,Al,"{""Al"": 1.0}",26.982,#FFFFFF,cubic,"{8,9,30,36,38}",635.0
Aluminocoquimbite,Al2Fe2(SO4)6(H2O)12·9H2O,"{""Al"": 2.0, ""Fe"": 2.0, ""S"": 6.0, ""O"": 45.0, ""H"": 42.0}",1120.305,#556B2F,hexagonal,"{45,47,55}",2686.0
Aluminomagnesiohulsite,Mg2AlO2(BO3),"{""Mg"": 2.0, ""Al"": 1.0, ""O"": 5.0, ""B"": 1.0}",166.397,#FFFFFF,monoclinic,{23},398.0
Alumino-oxy-rossmanite,Al3Al6(Si5AlO18)(BO3)3(OH)3O,"{""Al"": 10.0, ""Si"": 5.0, ""O"": 31.0, ""B"": 3.0, ""H"": 3.0}",941.668,#FFFFFF,hexagonal,{34},564.0
Aluminopyracmonite,(NH4)3Al(SO4)3,"{""N"": 3.0, ""H"": 12.0, ""Al"": 1.0, ""S"": 3.0, ""O"": 12.0}",369.267,#FFFFFF,hexagonal,"{45,54}",658.0
Aluminosugilite,KNa2Al2Li3Si12O30,"{""K"": 1.0, ""Na"": 2.0, ""Al"": 2.0, ""Li"": 3.0, ""Si"": 12.0, ""O"": 30.0}",976.852,#FFFFFF,hexagonal,"{32,35}",1138.0
Aluminotaipingite-(CeCa),(Ce6Ca3)Al(SiO4)3[SiO3(OH)]4F3,"{""Ce"": 6.0, ""Ca"": 3.0, ""Al"": 1.0, ""Si"": 7.0, ""O"": 28.0, ""H"": 4.0, ""F"": 3.0}",1693.529,#FFFFFF,hexagonal,{},1.0
Alum-(K),KAl(SO4)2·12H2O,"{""K"": 1.0, ""Al"": 1.0, ""S"": 2.0, ""O"": 20.0, ""H"": 24.0}",474.372,#FFFFFF,cubic,"{45,47,50}",2695.0
Alum-(Na),NaAl(SO4)2·12H2O,"{""Na"": 1.0, ""Al"": 1.0, ""S"": 2.0, ""O"": 20.0, ""H"": 24.0}",458.264,#FFFFFF,cubic,"{14,45,47,50,54}",2990.0
Alumoedtollite,K2NaCu5AlO2(AsO4)4,"{""K"": 2.0, ""Na"": 1.0, ""Cu"": 5.0, ""Al"": 1.0, ""O"": 18.0, ""As"": 4.0}",1033.568,#FFFFFF,triclinic,{45},424.0
Alumohydrocalcite,CaAl2(CO3)2(OH)4·4H2O,"{""Ca"": 1.0, ""Al"": 2.0, ""C"": 2.0, ""O"": 14.0, ""H"": 12.0}",354.146,#FFFFFF,triclinic,{47},1998.0
Alumoklyuchevskite,K3Cu2+3AlO2(SO4)4,"{""K"": 3.0, ""Cu"": 3.0, ""Al"": 1.0, ""O"": 18.0, ""S"": 4.0}",751.136,#FFFFFF,monoclinic,{45},424.0
Alumolukrahnite,CaCu2+Al(AsO4)2(OH)(H2O),"{""Ca"": 1.0, ""Cu"": 1.0, ""Al"": 1.0, ""As"": 2.0, ""O"": 10.0, ""H"": 3.0}",443.464,#FFFFFF,triclinic,{},1.0
Alumotantite,AlTaO4,"{""Al"": 1.0, ""Ta"": 1.0, ""O"": 4.0}",271.928,#FFFFFF,orthorhombic,{34},564.0
Alumovesuvianite,Ca19Al(Al10Mg2)Si18O69(OH)9,"{""Ca"": 19.0, ""Al"": 11.0, ""Mg"": 2.0, ""Si"": 18.0, ""O"": 78.0, ""H"": 9.0}",2869.418,#FFFFFF,tetragonal,"{7,38}",231.0
Alunite,KAl3(SO4)2(OH)6,"{""K"": 1.0, ""Al"": 3.0, ""S"": 2.0, ""O"": 14.0, ""H"": 6.0}",414.198,#FFFFFF,hexagonal,"{45,46,47,50,54}",2981.0
Alunogen,Al2(SO4)3(H2O)12·5H2O,"{""Al"": 2.0, ""S"": 3.0, ""O"": 29.0, ""H"": 34.0}",648.387,#FFFFFF,triclinic,"{45,47,50,54,55}",3193.0
Alvesite,NaKZrSi6O15·2H2O,"{""Na"": 1.0, ""K"": 1.0, ""Zr"": 1.0, ""Si"": 6.0, ""O"": 17.0, ""H"": 4.0}",597.837,#FFFFFF,orthorhombic,{},1.0
Alwilkinsite-(Y),Y(UO2)3(SO4)2O(OH)3(H2O)7·7H2O,"{""Y"": 1.0, ""U"": 3.0, ""O"": 32.0, ""S"": 2.0, ""H"": 31.0}",1410.332,#FFFFFF,orthorhombic,"{47,55}",2262.0
Amakinite,Fe(OH)2,"{""Fe"": 1.0, ""O"": 2.0, ""H"": 2.0}",89.859,#8B4513,hexagonal,{6},205.0
Amarantite,Fe3+2O(SO4)2·7H2O,"{""Fe"": 2.0, ""O"": 16.0, ""S"": 2.0, ""H"": 14.0}",445.906,#556B2F,triclinic,{47},1998.0
Amarillite,NaFe3+(SO4)2·6H2O,"{""Na"": 1.0, ""Fe"": 1.0, ""S"": 2.0, ""O"": 14.0, ""H"": 12.0}",379.037,#556B2F,monoclinic,{47},1998.0
Amaterasuite,Sr4Ti6Si4O23(OH)Cl,"{""Sr"": 4.0, ""Ti"": 6.0, ""Si"": 4.0, ""O"": 24.0, ""H"": 1.0, ""Cl"": 1.0}",1170.456,#FFFFFF,orthorhombic,{},1.0
Amblygonite,LiAl(PO4)F,"{""Li"": 1.0, ""Al"": 1.0, ""P"": 1.0, ""O"": 4.0, ""F"": 1.0}",147.89,#FFFFFF,triclinic,"{34,47}",2562.0
Ameghinite,NaB3O3(OH)4,"{""Na"": 1.0, ""B"": 3.0, ""O"": 7.0, ""H"": 4.0}",171.445,#FFFFFF,monoclinic,{25},210.0
Amesite,Mg2Al(AlSiO5)(OH)4,"{""Mg"": 2.0, ""Al"": 2.0, ""Si"": 1.0, ""O"": 9.0, ""H"": 4.0}",278.682,#FFFFFF,hexagonal,{40},319.0
Amgaite,Tl3+2Te6+O6,"{""Tl"": 2.0, ""Te"": 1.0, ""O"": 6.0}",632.354,#FFFFFF,hexagonal,{33},797.0
Amicite,K2Na2(Al4Si4O16)·5H2O,"{""K"": 2.0, ""Na"": 2.0, ""Al"": 4.0, ""Si"": 4.0, ""O"": 21.0, ""H"": 10.0}",690.503,#FFFFFF,monoclinic,{35},726.0
Aminoffite,Ca3(BeOH)2Si3O10,"{""Ca"": 3.0, ""Be"": 2.0, ""O"": 12.0, ""H"": 2.0, ""Si"": 3.0}",416.5174,#FFFFFF,tetragonal,"{23,31,35}",1480.0
Ammineite,CuCl2·2NH3,"{""Cu"": 1.0, ""Cl"": 2.0, ""N"": 2.0, ""H"": 6.0}",168.508,#FFFFFF,orthorhombic,"{45,52}",496.0
Ammonioalunite,(NH4)Al3(SO4)2(OH)6,"{""N"": 1.0, ""H"": 10.0, ""Al"": 3.0, ""S"": 2.0, ""O"": 14.0}",393.139,#FFFFFF,hexagonal,"{14,49,50,54}",645.0
Ammonioborite,(NH4)3B15O20(OH)8·4H2O,"{""N"": 3.0, ""H"": 28.0, ""B"": 15.0, ""O"": 32.0}",744.363,#FFFFFF,monoclinic,"{25,55,57}",523.0
Ammoniojarosite,(NH4)Fe3+3(SO4)2(OH)6,"{""N"": 1.0, ""H"": 10.0, ""Fe"": 3.0, ""S"": 2.0, ""O"": 14.0}",479.728,#556B2F,hexagonal,"{50,54,55}",771.0
Ammoniolasalite,[(NH4)2Mg2(H2O)20]·[V10O28],"{""N"": 2.0, ""H"": 48.0, ""Mg"": 2.0, ""O"": 48.0, ""V"": 10.0}",1402.38,#FFFFFF,monoclinic,"{47,55}",2262.0
Ammonioleucite,(NH4)(AlSi2O6),"{""N"": 1.0, ""H"": 4.0, ""Al"": 1.0, ""Si"": 2.0, ""O"": 6.0}",197.185,#FFFFFF,tetragonal,"{16,23}",481.0
Ammoniomagnesiovoltaite,(NH4)2Mg5Fe3+3Al(SO4)12·18H2O,"{""N"": 2.0, ""H"": 44.0, ""Mg"": 5.0, ""Fe"": 3.0, ""Al"": 1.0, ""S"": 12.0, ""O"": 66.0}",1829.062,#556B2F,cubic,"{47,55}",2262.0
Ammoniomathesiusite,(NH4)5(UO2)4(SO4)4(VO5)·4H2O,"{""N"": 5.0, ""H"": 28.0, ""U"": 4.0, ""O"": 33.0, ""S"": 4.0, ""V"": 1.0}",1757.528,#FFFFFF,tetragonal,"{47,53}",2115.0
Ammoniotinsleyite,(NH4)Al2(PO4)2(OH)·2H2O,"{""N"": 1.0, ""H"": 9.0, ""Al"": 2.0, ""P"": 2.0, ""O"": 11.0}",314.98,#FFFFFF,monoclinic,{47},1998.0
Ammoniovoltaite,(NH4)2Fe2+5Fe3+3Al(SO4)12(H2O)18,"{""N"": 2.0, ""H"": 44.0, ""Fe"": 8.0, ""Al"": 1.0, ""S"": 12.0, ""O"": 66.0}",1986.762,#556B2F,cubic,{45},424.0
Ammoniozippeite,(NH4)2[(UO2)2(SO4)O2]·H2O,"{""N"": 2.0, ""H"": 10.0, ""U"": 2.0, ""O"": 11.0, ""S"": 1.0}",722.203,#FFFFFF,orthorhombic,"{47,53}",2115.0
Amoraite,Ca12Al6(OH)36(CO3)2(SO3)·15H2O,"{""Ca"": 12.0, ""Al"": 6.0, ""O"": 60.0, ""H"": 66.0, ""C"": 2.0, ""S"": 1.0}",1725.378,#FFFFFF,triclinic,{},1.0
Amurselite,(NH4)2(UO2)5(SeO3)3O2(OH)2(H2O)·8H2O,"{""N"": 2.0, ""H"": 28.0, ""U"": 5.0, ""O"": 32.0, ""Se"": 3.0}",1995.269,#FFFFFF,triclinic,{},1.0
Analcime,Na(AlSi2O6)·H2O,"{""Na"": 1.0, ""Al"": 1.0, ""Si"": 2.0, ""O"": 7.0, ""H"": 2.0}",220.151,#FFFFFF,hexagonal,"{8,9,10,14,16,17,24,25,35}",1532.0
Anandite,BaFe2+3(Si3Fe3+)O10S(OH),"{""Ba"": 1.0, ""Fe"": 4.0, ""Si"": 3.0, ""O"": 11.0, ""S"": 1.0, ""H"": 1.0}",654.022,#556B2F,orthorhombic,"{31,56}",499.0
Anapaite,Ca2Fe2+(PO4)2·4H2O,"{""Ca"": 2.0, ""Fe"": 1.0, ""P"": 2.0, ""O"": 12.0, ""H"": 8.0}",398.001,#556B2F,triclinic,"{24,25,53}",401.0
Anastasenkoite,CaFe2+P2O7,"{""Ca"": 1.0, ""Fe"": 1.0, ""P"": 2.0, ""O"": 7.0}",269.864,#556B2F,triclinic,{51},128.0
Anatase,TiO2,"{""Ti"": 1.0, ""O"": 2.0}",79.865,#FFFFFF,tetragonal,"{14,23,24,26,34,35,36,40,48,49}",2831.0
Anatolygurbanovite,SrCa2Si3O9,"{""Sr"": 1.0, ""Ca"": 2.0, ""Si"": 3.0, ""O"": 9.0}",396.022,#FFFFFF,triclinic,{},1.0
Ancylite-(Ce),CeSr(CO3)2(OH)·H2O,"{""Ce"": 1.0, ""Sr"": 1.0, ""C"": 2.0, ""O"": 8.0, ""H"": 3.0}",382.778,#FFFFFF,orthorhombic,"{35,36}",1017.0
Ancylite-(La),LaSr(CO3)2(OH)·H2O,"{""La"": 1.0, ""Sr"": 1.0, ""C"": 2.0, ""O"": 8.0, ""H"": 3.0}",381.568,#FFFFFF,orthorhombic,"{35,36}",1017.0
Andalusite,Al2SiO5,"{""Al"": 2.0, ""Si"": 1.0, ""O"": 5.0}",162.044,#FFFFFF,orthorhombic,"{19,23,26,34,40}",1674.0
Andersonite,Na2Ca(UO2)(CO3)3·5-6H2O,"{""Na"": 2.0, ""Ca"": 1.0, ""U"": 1.0, ""O"": 17.0, ""C"": 3.0, ""H"": 12.0}",644.2,#FFFFFF,hexagonal,"{47,55}",2262.0
Andradite,Ca3Fe3+2(SiO4)3,"{""Ca"": 3.0, ""Fe"": 2.0, ""Si"": 3.0, ""O"": 12.0}",508.167,#556B2F,triclinic,"{6,26,31,35,36,40,51}",2275.0
Andreadiniite,CuHgAg7Pb7Sb24S48,"{""Cu"": 1.0, ""Hg"": 1.0, ""Ag"": 7.0, ""Pb"": 7.0, ""Sb"": 24.0, ""S"": 48.0}",6930.746,#708090,monoclinic,{33},797.0
Andremeyerite,BaFe2+2(Si2O7),"{""Ba"": 1.0, ""Fe"": 2.0, ""Si"": 2.0, ""O"": 7.0}",417.183,#556B2F,orthorhombic,"{35,56}",869.0
Andreybulakhite,Ni(C2O4)·2H2O,"{""Ni"": 1.0, ""C"": 2.0, ""O"": 6.0, ""H"": 4.0}",182.741,#FFFFFF,monoclinic,{},1.0
Andreyivanovite,FeCrP,"{""Fe"": 1.0, ""Cr"": 1.0, ""P"": 1.0}",138.815,#228B22,orthorhombic,{6},205.0
Andrieslombaardite,RhSbS,"{""Rh"": 1.0, ""Sb"": 1.0, ""S"": 1.0}",256.73,#A9A9A9,cubic,{},1.0
Anduoite,RuAs2,"{""Ru"": 1.0, ""As"": 2.0}",250.914,#808080,orthorhombic,"{6,33}",1002.0
Andychristyite,PbCu2+Te6+O5(H2O),"{""Pb"": 1.0, ""Cu"": 1.0, ""Te"": 1.0, ""O"": 6.0, ""H"": 2.0}",496.356,#FFFFFF,triclinic,{47},1998.0
Andymcdonaldite,Fe2TeO6,"{""Fe"": 2.0, ""Te"": 1.0, ""O"": 6.0}",335.284,#8B4513,tetragonal,{47},1998.0