name,formula,elements,density,color,crystal_system,dna
Anhydrite,Ca(SO4),"{""Ca"": 1.0, ""S"": 1.0, ""O"": 4.0}",136.14,#FFFF00,orthorhombic,"{""system"": ""orthorhombic"", ""scale"": [0.8, 1.0, 1.2], ""optical"": {""transparent"": 0, ""refraction"": 0.0, ""birefringence"": 0.0}}"
Anhydrokainite,KMg(SO4)Cl,"{""K"": 1.0, ""Mg"": 1.0, ""S"": 1.0, ""O"": 4.0, ""Cl"": 1.0}",194.92,#FFFFFF,hexagonal,"{""system"": ""hexagonal"", ""scale"": [1.0, 1.0, 1.6], ""optical"": {""transparent"": 1, ""refraction"": 1.5, ""birefringence"": 0.01}}"
Anilite,Cu7S4,"{""Cu"": 7.0, ""S"": 4.0}",573.09,#A9A9A9,orthorhombic,"{""system"": ""orthorhombic"", ""scale"": [0.8, 1.0, 1.2], ""optical"": {""transparent"": 0, ""refraction"": 0.0, ""birefringence"": 0.0}}"
Ankinovichite,NiAl4(V5+O3)2(OH)12·2H2O,"{""Ni"": 1.0, ""Al"": 4.0, ""V"": 2.0, ""O"": 20.0, ""H"": 16.0}",604.62,#FFFFFF,monoclinic,"{""system"": ""monoclinic"", ""scale"": [0.7, 1.0, 1.3], ""optical"": {""transparent"": 1, ""refraction"": 1.5, ""birefringence"": 0.01}}"
Annabergite,Ni3(AsO4)2·8H2O,"{""Ni"": 3.0, ""As"": 2.0, ""O"": 16.0, ""H"": 16.0}",598.04,#FFFFFF,monoclinic,"{""system"": ""monoclinic"", ""scale"": [0.7, 1.0, 1.3], ""optical"": {""transparent"": 1, ""refraction"": 1.5, ""birefringence"": 0.01}}"
Annite,KFe2+3(AlSi3O10)(OH)2,"{""K"": 1.0, ""Fe"": 3.0, ""Al"": 1.0, ""Si"": 3.0, ""O"": 12.0, ""H"": 2.0}",511.92,#556B2F,monoclinic,"{""system"": ""monoclinic"", ""scale"": [0.7, 1.0, 1.3], ""optical"": {""transparent"": 0, ""refraction"": 0.0, ""birefringence"": 0.0}}"
Anorpiment,As2S3,"{""As"": 2.0, ""S"": 3.0}",246.02,#FFD700,triclinic,"{""system"": ""triclinic"", ""scale"": [0.7, 1.0, 1.3], ""optical"": {""transparent"": 0, ""refraction"": 0.0, ""birefringence"": 0.0}}"
Anorthite,Ca(Al2Si2O8),"{""Ca"": 1.0, ""Al"": 2.0, ""Si"": 2.0, ""O"": 8.0}",278.22,#FFFFFF,triclinic,"{""system"": ""triclinic"", ""scale"": [0.7, 1.0, 1.3], ""optical"": {""transparent"": 1, ""refraction"": 1.5, ""birefringence"": 0.01}}"
Anorthominasragrite,V4+O(SO4)·5H2O,"{""V"": 1.0, ""O"": 10.0, ""S"": 1.0, ""H"": 10.0}",253.08,#FFFFFF,triclinic,"{""system"": ""triclinic"", ""scale"": [0.7, 1.0, 1.3], ""optical"": {""transparent"": 1, ""refraction"": 1.5, ""birefringence"": 0.01}}"
Anorthoroselite,Ca2Co(AsO4)2·2H2O,"{""Ca"": 2.0, ""Co"": 1.0, ""As"": 2.0, ""O"": 10.0, ""H"": 4.0}",452.96,#FFFFFF,triclinic,"{""system"": ""triclinic"", ""scale"": [0.7, 1.0, 1.3], ""optical"": {""transparent"": 1, ""refraction"": 1.5, ""birefringence"": 0.01}}"
Anorthoyttrialite-(Y),Y4(SiO4)(Si3O10),"{""Y"": 4.0, ""Si"": 4.0, ""O"": 14.0}",692.0,#FFFFFF,triclinic,"{""system"": ""triclinic"", ""scale"": [0.7, 1.0, 1.3], ""optical"": {""transparent"": 1, ""refraction"": 1.5, ""birefringence"": 0.01}}"
Antarcticite,CaCl2·6H2O,"{""Ca"": 1.0, ""Cl"": 2.0, ""H"": 12.0, ""O"": 6.0}",219.08,#FFFFFF,hexagonal,"{""system"": ""hexagonal"", ""scale"": [1.0, 1.0, 1.6], ""optical"": {""transparent"": 1, ""refraction"": 1.5, ""birefringence"": 0.01}}"
Anthoinite,AlWO3(OH)3,"{""Al"": 1.0, ""W"": 1.0, ""O"": 6.0, ""H"": 3.0}",309.84,#FFFFFF,triclinic,"{""system"": ""triclinic"", ""scale"": [0.7, 1.0, 1.3], ""optical"": {""transparent"": 1, ""refraction"": 1.5, ""birefringence"": 0.01}}"
Anthonyite,Cu(OH)2·3H2O,"{""Cu"": 1.0, ""O"": 5.0, ""H"": 8.0}",151.61,#00BFFF,,"{""system"": """", ""scale"": [1.0, 1.0, 1.0], ""optical"": {""transparent"": 0, ""refraction"": 0.0, ""birefringence"": 0.0}}"
Antigorite,Mg3Si2O5(OH)4,"{""Mg"": 3.0, ""Si"": 2.0, ""O"": 9.0, ""H"": 4.0}",277.14,#FFFFFF,monoclinic,"{""system"": ""monoclinic"", ""scale"": [0.7, 1.0, 1.3], ""optical"": {""transparent"": 1, ""refraction"": 1.5, ""birefringence"": 0.01}}"
Antimonselite,Sb2Se3,"{""Sb"": 2.0, ""Se"": 3.0}",480.4,#A9A9A9,orthorhombic,"{""system"": ""orthorhombic"", ""scale"": [0.8, 1.0, 1.2], ""optical"": {""transparent"": 0, ""refraction"": 0.0, ""birefringence"": 0.0}}"
Antimony,Sb,"{""Sb"": 1.0}",121.76,#A9A9A9,tetragonal,"{""system"": ""tetragonal"", ""scale"": [1.0, 1.0, 1.4], ""optical"": {""transparent"": 0, ""refraction"": 0.0, ""birefringence"": 0.0}}"
Antipinite,KNa3Cu2(C2O4)4,"{""K"": 1.0, ""Na"": 3.0, ""Cu"": 2.0, ""C"": 8.0, ""O"": 16.0}",587.25,#FFFFFF,triclinic,"{""system"": ""triclinic"", ""scale"": [0.7, 1.0, 1.3], ""optical"": {""transparent"": 1, ""refraction"": 1.5, ""birefringence"": 0.01}}"
Antipovite,Cu5O2(PO4)2,"{""Cu"": 5.0, ""O"": 10.0, ""P"": 2.0}",539.69,#00BFFF,triclinic,"{""system"": ""triclinic"", ""scale"": [0.7, 1.0, 1.3], ""optical"": {""transparent"": 0, ""refraction"": 0.0, ""birefringence"": 0.0}}"
Antlerite,Cu2+3(SO4)(OH)4,"{""Cu"": 3.0, ""S"": 1.0, ""O"": 8.0, ""H"": 4.0}",354.74,#FFFFFF,orthorhombic,"{""system"": ""orthorhombic"", ""scale"": [0.8, 1.0, 1.2], ""optical"": {""transparent"": 1, ""refraction"": 1.5, ""birefringence"": 0.01}}"
Anyuiite,AuPb2,"{""Au"": 1.0, ""Pb"": 2.0}",611.37,#FFD700,tetragonal,"{""system"": ""tetragonal"", ""scale"": [1.0, 1.0, 1.4], ""optical"": {""transparent"": 0, ""refraction"": 0.0, ""birefringence"": 0.0}}"
Anzaite-(Ce),Ce4Fe2+Ti6O18(OH)2,"{""Ce"": 4.0, ""Fe"": 1.0, ""Ti"": 6.0, ""O"": 20.0, ""H"": 2.0}",1225.57,#556B2F,monoclinic,"{""system"": ""monoclinic"", ""scale"": [0.7, 1.0, 1.3], ""optical"": {""transparent"": 0, ""refraction"": 0.0, ""birefringence"": 0.0}}"
Apachite,Cu2+9Si10O29·11H2O,"{""Cu"": 9.0, ""Si"": 10.0, ""O"": 40.0, ""H"": 22.0}",1515.03,#FFFFFF,monoclinic,"{""system"": ""monoclinic"", ""scale"": [0.7, 1.0, 1.3], ""optical"": {""transparent"": 1, ""refraction"": 1.5, ""birefringence"": 0.01}}"
Apexite,NaMg(PO4)·9H2O,"{""Na"": 1.0, ""Mg"": 1.0, ""P"": 1.0, ""O"": 13.0, ""H"": 18.0}",304.41,#FFFFFF,triclinic,"{""system"": ""triclinic"", ""scale"": [0.7, 1.0, 1.3], ""optical"": {""transparent"": 1, ""refraction"": 1.5, ""birefringence"": 0.01}}"
Aphthitalite,K3Na(SO4)2,"{""K"": 3.0, ""Na"": 1.0, ""S"": 2.0, ""O"": 8.0}",332.41,#FFFFFF,hexagonal,"{""system"": ""hexagonal"", ""scale"": [1.0, 1.0, 1.6], ""optical"": {""transparent"": 1, ""refraction"": 1.5, ""birefringence"": 0.01}}"
Aplowite,Co(SO4)·4H2O,"{""Co"": 1.0, ""S"": 1.0, ""O"": 8.0, ""H"": 8.0}",227.05,#FFFFFF,monoclinic,"{""system"": ""monoclinic"", ""scale"": [0.7, 1.0, 1.3], ""optical"": {""transparent"": 1, ""refraction"": 1.5, ""birefringence"": 0.01}}"
Apuanite,(Fe2+Fe3+2)(Fe3+2Sb3+4)O12S,"{""Fe"": 5.0, ""Sb"": 4.0, ""O"": 12.0, ""S"": 1.0}",990.35,#556B2F,tetragonal,"{""system"": ""tetragonal"", ""scale"": [1.0, 1.0, 1.4], ""optical"": {""transparent"": 0, ""refraction"": 0.0, ""birefringence"": 0.0}}"
Aradite,BaCa6[(SiO4)(VO4)](VO4)2F,"{""Ba"": 1.0, ""Ca"": 6.0, ""Si"": 1.0, ""O"": 16.0, ""V"": 3.0, ""F"": 1.0}",833.72,#FFFFFF,hexagonal,"{""system"": ""hexagonal"", ""scale"": [1.0, 1.0, 1.6], ""optical"": {""transparent"": 1, ""refraction"": 1.5, ""birefringence"": 0.01}}"
Aragonite,Ca(CO3),"{""Ca"": 1.0, ""C"": 1.0, ""O"": 3.0}",100.09,#FFFFFF,orthorhombic,"{""system"": ""orthorhombic"", ""scale"": [0.8, 1.0, 1.2], ""optical"": {""transparent"": 1, ""refraction"": 1.5, ""birefringence"": 0.01}}"
Arangasite,Al2(SO4)(PO4)F·9H2O,"{""Al"": 2.0, ""S"": 1.0, ""O"": 17.0, ""P"": 1.0, ""F"": 1.0, ""H"": 18.0}",426.13,#FFFFFF,monoclinic,"{""system"": ""monoclinic"", ""scale"": [0.7, 1.0, 1.3], ""optical"": {""transparent"": 1, ""refraction"": 1.5, ""birefringence"": 0.01}}"
Aravaipaite,Pb3AlF9·H2O,"{""Pb"": 3.0, ""Al"": 1.0, ""F"": 9.0, ""H"": 2.0, ""O"": 1.0}",837.6,#FFFFFF,monoclinic,"{""system"": ""monoclinic"", ""scale"": [0.7, 1.0, 1.3], ""optical"": {""transparent"": 1, ""refraction"": 1.5, ""birefringence"": 0.01}}"
Aravaite,Ba2Ca18(SiO4)6(PO4)3(CO3)F3O,"{""Ba"": 2.0, ""Ca"": 18.0, ""Si"": 6.0, ""O"": 40.0, ""P"": 3.0, ""C"": 1.0, ""F"": 3.0}",1966.56,#FFFFFF,hexagonal,"{""system"": ""hexagonal"", ""scale"": [1.0, 1.0, 1.6], ""optical"": {""transparent"": 1, ""refraction"": 1.5, ""birefringence"": 0.01}}"
Arcanite,K2(SO4),"{""K"": 2.0, ""S"": 1.0, ""O"": 4.0}",174.26,#FFFF00,orthorhombic,"{""system"": ""orthorhombic"", ""scale"": [0.8, 1.0, 1.2], ""optical"": {""transparent"": 0, ""refraction"": 0.0, ""birefringence"": 0.0}}"
Archerite,H2K(PO4),"{""H"": 2.0, ""K"": 1.0, ""P"": 1.0, ""O"": 4.0}",136.09,#FFFFFF,tetragonal,"{""system"": ""tetragonal"", ""scale"": [1.0, 1.0, 1.4], ""optical"": {""transparent"": 1, ""refraction"": 1.5, ""birefringence"": 0.01}}"
Arctite,(Na5Ca)Ca6Ba(PO4)6F3,"{""Na"": 5.0, ""Ca"": 7.0, ""Ba"": 1.0, ""P"": 6.0, ""O"": 24.0, ""F"": 3.0}",1159.66,#FFFFFF,hexagonal,"{""system"": ""hexagonal"", ""scale"": [1.0, 1.0, 1.6], ""optical"": {""transparent"": 1, ""refraction"": 1.5, ""birefringence"": 0.01}}"
Arcubisite,Ag6CuBiS4,"{""Ag"": 6.0, ""Cu"": 1.0, ""Bi"": 1.0, ""S"": 4.0}",1047.99,#A9A9A9,,"{""system"": """", ""scale"": [1.0, 1.0, 1.0], ""optical"": {""transparent"": 0, ""refraction"": 0.0, ""birefringence"": 0.0}}"
Ardaite,Pb17Sb15S35Cl9,"{""Pb"": 17.0, ""Sb"": 15.0, ""S"": 35.0, ""Cl"": 9.0}",6789.95,#708090,monoclinic,"{""system"": ""monoclinic"", ""scale"": [0.7, 1.0, 1.3], ""optical"": {""transparent"": 0, ""refraction"": 0.0, ""birefringence"": 0.0}}"
Ardealite,Ca2(PO3OH)(SO4)·4H2O,"{""Ca"": 2.0, ""P"": 1.0, ""O"": 12.0, ""H"": 9.0, ""S"": 1.0}",344.26,#FFFFFF,monoclinic,"{""system"": ""monoclinic"", ""scale"": [0.7, 1.0, 1.3], ""optical"": {""transparent"": 1, ""refraction"": 1.5, ""birefringence"": 0.01}}"
Arfvedsonite,NaNa2(Fe2+4Fe3+)Si8O22(OH)2,"{""Na"": 3.0, ""Fe"": 5.0, ""Si"": 8.0, ""O"": 24.0, ""H"": 2.0}",958.96,#556B2F,monoclinic,"{""system"": ""monoclinic"", ""scale"": [0.7, 1.0, 1.3], ""optical"": {""transparent"": 0, ""refraction"": 0.0, ""birefringence"": 0.0}}"
Argentodufrenoysite,Ag3Pb26As35S80,"{""Ag"": 3.0, ""Pb"": 26.0, ""As"": 35.0, ""S"": 80.0}",10897.81,#708090,triclinic,"{""system"": ""triclinic"", ""scale"": [0.7, 1.0, 1.3], ""optical"": {""transparent"": 0, ""refraction"": 0.0, ""birefringence"": 0.0}}"
Argentojarosite,AgFe3+3(SO4)2(OH)6,"{""Ag"": 1.0, ""Fe"": 3.0, ""S"": 2.0, ""O"": 14.0, ""H"": 6.0}",569.59,#556B2F,hexagonal,"{""system"": ""hexagonal"", ""scale"": [1.0, 1.0, 1.6], ""optical"": {""transparent"": 0, ""refraction"": 0.0, ""birefringence"": 0.0}}"
Argentopearceite,[Ag9AgS4][Ag6As2S7],"{""Ag"": 16.0, ""S"": 11.0, ""As"": 2.0}",2228.42,#FFD700,hexagonal,"{""system"": ""hexagonal"", ""scale"": [1.0, 1.0, 1.6], ""optical"": {""transparent"": 0, ""refraction"": 0.0, ""birefringence"": 0.0}}"
Argentopolybasite,[Ag9AgS4][Ag6Sb2S7],"{""Ag"": 16.0, ""S"": 11.0, ""Sb"": 2.0}",2322.1,#A9A9A9,monoclinic,"{""system"": ""monoclinic"", ""scale"": [0.7, 1.0, 1.3], ""optical"": {""transparent"": 0, ""refraction"": 0.0, ""birefringence"": 0.0}}"
Argentopyrite,AgFe2S3,"{""Ag"": 1.0, ""Fe"": 2.0, ""S"": 3.0}",315.75,#DAA520,monoclinic,"{""system"": ""monoclinic"", ""scale"": [0.7, 1.0, 1.3], ""optical"": {""transparent"": 0, ""refraction"": 0.0, ""birefringence"": 0.0}}"
Argentotennantite-(Fe),Ag6(Cu4Fe2)As4S13,"{""Ag"": 6.0, ""Cu"": 4.0, ""Fe"": 2.0, ""As"": 4.0, ""S"": 13.0}",1729.58,#DAA520,cubic,"{""system"": ""cubic"", ""scale"": [1.0, 1.0, 1.0], ""optical"": {""transparent"": 0, ""refraction"": 0.0, ""birefringence"": 0.0}}"
Argentotetrahedrite-(Cd),Ag6(Cu4Cd2)Sb4S13,"{""Ag"": 6.0, ""Cu"": 4.0, ""Cd"": 2.0, ""Sb"": 4.0, ""S"": 13.0}",2030.06,#A9A9A9,cubic,"{""system"": ""cubic"", ""scale"": [1.0, 1.0, 1.0], ""optical"": {""transparent"": 0, ""refraction"": 0.0, ""birefringence"": 0.0}}"
Argentotetrahedrite-(Fe),Ag6(Cu4Fe2)Sb4S13,"{""Ag"": 6.0, ""Cu"": 4.0, ""Fe"": 2.0, ""Sb"": 4.0, ""S"": 13.0}",1916.94,#DAA520,cubic,"{""system"": ""cubic"", ""scale"": [1.0, 1.0, 1.0], ""optical"": {""transparent"": 0, ""refraction"": 0.0, ""birefringence"": 0.0}}"
Argentotetrahedrite-(Hg),Ag6(Cu4Hg2)Sb4S13,"{""Ag"": 6.0, ""Cu"": 4.0, ""Hg"": 2.0, ""Sb"": 4.0, ""S"": 13.0}",2206.42,#A9A9A9,cubic,"{""system"": ""cubic"", ""scale"": [1.0, 1.0, 1.0], ""optical"": {""transparent"": 0, ""refraction"": 0.0, ""birefringence"": 0.0}}"
Argesite,(NH4)7Bi3Cl16,"{""N"": 7.0, ""H"": 28.0, ""Bi"": 3.0, ""Cl"": 16.0}",1320.43,#FFFFFF,hexagonal,"{""system"": ""hexagonal"", ""scale"": [1.0, 1.0, 1.6], ""optical"": {""transparent"": 1, ""refraction"": 1.5, ""birefringence"": 0.01}}"
Argutite,GeO2,"{""Ge"": 1.0, ""O"": 2.0}",104.63,#FFFFFF,tetragonal,"{""system"": ""tetragonal"", ""scale"": [1.0, 1.0, 1.4], ""optical"": {""transparent"": 1, ""refraction"": 1.5, ""birefringence"": 0.01}}"
Argyrodite,Ag8GeS6,"{""Ag"": 8.0, ""Ge"": 1.0, ""S"": 6.0}",1127.95,#A9A9A9,orthorhombic,"{""system"": ""orthorhombic"", ""scale"": [0.8, 1.0, 1.2], ""optical"": {""transparent"": 0, ""refraction"": 0.0, ""birefringence"": 0.0}}"
Arhbarite,Cu2Mg(AsO4)(OH)3,"{""Cu"": 2.0, ""Mg"": 1.0, ""As"": 1.0, ""O"": 7.0, ""H"": 3.0}",341.35,#FFFFFF,triclinic,"{""system"": ""triclinic"", ""scale"": [0.7, 1.0, 1.3], ""optical"": {""transparent"": 1, ""refraction"": 1.5, ""birefringence"": 0.01}}"
Ariegilatite,BaCa12(SiO4)4(PO4)2F2O,"{""Ba"": 1.0, ""Ca"": 12.0, ""Si"": 4.0, ""O"": 25.0, ""P"": 2.0, ""F"": 2.0}",1230.59,#FFFFFF,hexagonal,"{""system"": ""hexagonal"", ""scale"": [1.0, 1.0, 1.6], ""optical"": {""transparent"": 1, ""refraction"": 1.5, ""birefringence"": 0.01}}"
Aristarainite,Na2Mg[B6O8(OH)4]2·4H2O,"{""Na"": 2.0, ""Mg"": 1.0, ""B"": 12.0, ""O"": 28.0, ""H"": 16.0}",664.14,#FFFFFF,monoclinic,"{""system"": ""monoclinic"", ""scale"": [0.7, 1.0, 1.3], ""optical"": {""transparent"": 1, ""refraction"": 1.5, ""birefringence"": 0.01}}"
Armellinoite-(Ce),Ca4Ce4+(AsO4)4·H2O,"{""Ca"": 4.0, ""Ce"": 1.0, ""As"": 4.0, ""O"": 17.0, ""H"": 2.0}",874.14,#FFFFFF,tetragonal,"{""system"": ""tetragonal"", ""scale"": [1.0, 1.0, 1.4], ""optical"": {""transparent"": 1, ""refraction"": 1.5, ""birefringence"": 0.01}}"
Armenite,BaCa2(Al6Si9)O30·2H2O,"{""Ba"": 1.0, ""Ca"": 2.0, ""Al"": 6.0, ""Si"": 9.0, ""O"": 32.0, ""H"": 4.0}",1148.21,#FFFFFF,orthorhombic,"{""system"": ""orthorhombic"", ""scale"": [0.8, 1.0, 1.2], ""optical"": {""transparent"": 1, ""refraction"": 1.5, ""birefringence"": 0.01}}"
Armstrongite,CaZr(Si6O15)·2H2O,"{""Ca"": 1.0, ""Zr"": 1.0, ""Si"": 6.0, ""O"": 17.0, ""H"": 4.0}",575.87,#FFFFFF,monoclinic,"{""system"": ""monoclinic"", ""scale"": [0.7, 1.0, 1.3], ""optical"": {""transparent"": 1, ""refraction"": 1.5, ""birefringence"": 0.01}}"
Arrheniusite-(Ce),CaMg[(Ce7Y3)Ca5](SiO4)3(Si3B3O18)(AsO4)(BO3)F11,"{""Ca"": 6.0, ""Mg"": 1.0, ""Ce"": 7.0, ""Y"": 3.0, ""Si"": 6.0, ""O"": 37.0, ""B"": 4.0, ""As"": 1.0, ""F"": 11.0}",2600.06,#FFFFFF,hexagonal,"{""system"": ""hexagonal"", ""scale"": [1.0, 1.0, 1.6], ""optical"": {""transparent"": 1, ""refraction"": 1.5, ""birefringence"": 0.01}}"
Arrojadite-(BaNa),BaNa3(NaCa)Fe2+13Al(PO4)11(PO3OH)(OH)2,"{""Ba"": 1.0, ""Na"": 4.0, ""Ca"": 1.0, ""Fe"": 13.0, ""Al"": 1.0, ""P"": 12.0, ""O"": 50.0, ""H"": 3.0}",2197.06,#556B2F,monoclinic,"{""system"": ""monoclinic"", ""scale"": [0.7, 1.0, 1.3], ""optical"": {""transparent"": 0, ""refraction"": 0.0, ""birefringence"": 0.0}}"
Arrojadite-(KFe),(KNa)Fe2+(CaNa2)Fe2+13Al(PO4)11(PO3OH)(OH)2,"{""K"": 1.0, ""Na"": 3.0, ""Fe"": 14.0, ""Ca"": 1.0, ""Al"": 1.0, ""P"": 12.0, ""O"": 50.0, ""H"": 3.0}",2131.69,#556B2F,monoclinic,"{""system"": ""monoclinic"", ""scale"": [0.7, 1.0, 1.3], ""optical"": {""transparent"": 0, ""refraction"": 0.0, ""birefringence"": 0.0}}"
Arrojadite-(KNa),KNa3(CaNa2)Fe2+13Al(PO4)11(PO3OH)(OH)2,"{""K"": 1.0, ""Na"": 5.0, ""Ca"": 1.0, ""Fe"": 13.0, ""Al"": 1.0, ""P"": 12.0, ""O"": 50.0, ""H"": 3.0}",2121.82,#556B2F,monoclinic,"{""system"": ""monoclinic"", ""scale"": [0.7, 1.0, 1.3], ""optical"": {""transparent"": 0, ""refraction"": 0.0, ""birefringence"": 0.0}}"
Arrojadite-(PbFe),PbFe2+(CaNa2)Fe2+13Al(PO4)11(PO3OH)(OH)2,"{""Pb"": 1.0, ""Fe"": 14.0, ""Ca"": 1.0, ""Na"": 2.0, ""Al"": 1.0, ""P"": 12.0, ""O"": 50.0, ""H"": 3.0}",2276.8,#556B2F,monoclinic,"{""system"": ""monoclinic"", ""scale"": [0.7, 1.0, 1.3], ""optical"": {""transparent"": 0, ""refraction"": 0.0, ""birefringence"": 0.0}}"
Arrojadite-(SrFe),SrFe2+(CaNa2)Fe2+13Al(PO4)11(PO3OH)(OH)2,"{""Sr"": 1.0, ""Fe"": 14.0, ""Ca"": 1.0, ""Na"": 2.0, ""Al"": 1.0, ""P"": 12.0, ""O"": 50.0, ""H"": 3.0}",2157.22,#556B2F,monoclinic,"{""system"": ""monoclinic"", ""scale"": [0.7, 1.0, 1.3], ""optical"": {""transparent"": 0, ""refraction"": 0.0, ""birefringence"": 0.0}}"
Arsenatrotitanite,NaTi(AsO4)O,"{""Na"": 1.0, ""Ti"": 1.0, ""As"": 1.0, ""O"": 5.0}",225.78,#FFFFFF,monoclinic,"{""system"": ""monoclinic"", ""scale"": [0.7, 1.0, 1.3], ""optical"": {""transparent"": 1, ""refraction"": 1.5, ""birefringence"": 0.01}}"
Arsenic,As,"{""As"": 1.0}",74.92,#808080,hexagonal,"{""system"": ""hexagonal"", ""scale"": [1.0, 1.0, 1.6], ""optical"": {""transparent"": 0, ""refraction"": 0.0, ""birefringence"": 0.0}}"
Arseniosiderite,Ca2Fe3+3O2(AsO4)3·3H2O,"{""Ca"": 2.0, ""Fe"": 3.0, ""O"": 17.0, ""As"": 3.0, ""H"": 6.0}",750.52,#556B2F,monoclinic,"{""system"": ""monoclinic"", ""scale"": [0.7, 1.0, 1.3], ""optical"": {""transparent"": 0, ""refraction"": 0.0, ""birefringence"": 0.0}}"
Arsenocrandallite,CaAl3(AsO4)(AsO3OH)(OH)6,"{""Ca"": 1.0, ""Al"": 3.0, ""As"": 2.0, ""O"": 14.0, ""H"": 7.0}",501.92,#FFFFFF,hexagonal,"{""system"": ""hexagonal"", ""scale"": [1.0, 1.0, 1.6], ""optical"": {""transparent"": 1, ""refraction"": 1.5, ""birefringence"": 0.01}}"
Arsenoflorencite-(Ce),CeAl3(AsO4)2(OH)6,"{""Ce"": 1.0, ""Al"": 3.0, ""As"": 2.0, ""O"": 14.0, ""H"": 6.0}",600.95,#FFFFFF,hexagonal,"{""system"": ""hexagonal"", ""scale"": [1.0, 1.0, 1.6], ""optical"": {""transparent"": 1, ""refraction"": 1.5, ""birefringence"": 0.01}}"
Arsenoflorencite-(La),LaAl3(AsO4)2(OH)6,"{""La"": 1.0, ""Al"": 3.0, ""As"": 2.0, ""O"": 14.0, ""H"": 6.0}",599.74,#FFFFFF,hexagonal,"{""system"": ""hexagonal"", ""scale"": [1.0, 1.0, 1.6], ""optical"": {""transparent"": 1, ""refraction"": 1.5, ""birefringence"": 0.01}}"
Arsenogoldfieldite,Cu6Cu6(As2Te2)S13,"{""Cu"": 12.0, ""As"": 2.0, ""Te"": 2.0, ""S"": 13.0}",1584.42,#FFD700,cubic,"{""system"": ""cubic"", ""scale"": [1.0, 1.0, 1.0], ""optical"": {""transparent"": 0, ""refraction"": 0.0, ""birefringence"": 0.0}}"
Arsenogorceixite,BaAl3(AsO4)(AsO3OH)(OH)6,"{""Ba"": 1.0, ""Al"": 3.0, ""As"": 2.0, ""O"": 14.0, ""H"": 7.0}",599.17,#FFFFFF,hexagonal,"{""system"": ""hexagonal"", ""scale"": [1.0, 1.0, 1.6], ""optical"": {""transparent"": 1, ""refraction"": 1.5, ""birefringence"": 0.01}}"
Arsenogoyazite,SrAl3(AsO4)(AsO3OH)(OH)6,"{""Sr"": 1.0, ""Al"": 3.0, ""As"": 2.0, ""O"": 14.0, ""H"": 7.0}",549.46,#FFFFFF,hexagonal,"{""system"": ""hexagonal"", ""scale"": [1.0, 1.0, 1.6], ""optical"": {""transparent"": 1, ""refraction"": 1.5, ""birefringence"": 0.01}}"
Arsenohauchecornite,Ni18Bi3AsS16,"{""Ni"": 18.0, ""Bi"": 3.0, ""As"": 1.0, ""S"": 16.0}",2271.24,#FFD700,tetragonal,"{""system"": ""tetragonal"", ""scale"": [1.0, 1.0, 1.4], ""optical"": {""transparent"": 0, ""refraction"": 0.0, ""birefringence"": 0.0}}"
Arsenolamprite,As,"{""As"": 1.0}",74.92,#808080,orthorhombic,"{""system"": ""orthorhombic"", ""scale"": [0.8, 1.0, 1.2], ""optical"": {""transparent"": 0, ""refraction"": 0.0, ""birefringence"": 0.0}}"
Arsenolite,As2O3,"{""As"": 2.0, ""O"": 3.0}",197.84,#808080,cubic,"{""system"": ""cubic"", ""scale"": [1.0, 1.0, 1.0], ""optical"": {""transparent"": 0, ""refraction"": 0.0, ""birefringence"": 0.0}}"
Arsenopalladinite,Pd8As3,"{""Pd"": 8.0, ""As"": 3.0}",1076.12,#808080,triclinic,"{""system"": ""triclinic"", ""scale"": [0.7, 1.0, 1.3], ""optical"": {""transparent"": 0, ""refraction"": 0.0, ""birefringence"": 0.0}}"
Arsenopyrite,FeAsS,"{""Fe"": 1.0, ""As"": 1.0, ""S"": 1.0}",162.83,#DAA520,monoclinic,"{""system"": ""monoclinic"", ""scale"": [0.7, 1.0, 1.3], ""optical"": {""transparent"": 0, ""refraction"": 0.0, ""birefringence"": 0.0}}"
Arsenotucekite,Ni18Sb3AsS16,"{""Ni"": 18.0, ""Sb"": 3.0, ""As"": 1.0, ""S"": 16.0}",2009.58,#FFD700,tetragonal,"{""system"": ""tetragonal"", ""scale"": [1.0, 1.0, 1.4], ""optical"": {""transparent"": 0, ""refraction"": 0.0, ""birefringence"": 0.0}}"