name,formula,elements,density,color,crystal
Katiarsite,KTiO(AsO4),"{""K"": 1.0, ""Ti"": 1.0, ""O"": 5.0, ""As"": 1.0}",241.882,#FFFFFF,orthorhombic
Katoite,Ca3Al2(OH)12,"{""Ca"": 3.0, ""Al"": 2.0, ""O"": 12.0, ""H"": 12.0}",378.282,#FFFFFF,cubic
Katophorite,Na(NaCa)(Mg4Al)(Si7Al)O22(OH)2,"{""Na"": 2.0, ""Ca"": 1.0, ""Mg"": 4.0, ""Al"": 2.0, ""Si"": 7.0, ""O"": 24.0, ""H"": 2.0}",819.829,#FFFFFF,monoclinic
Kawazulite,Bi2Te2Se,"{""Bi"": 2.0, ""Te"": 2.0, ""Se"": 1.0}",752.131,#D2B48C,hexagonal
Kazakhstanite,Fe3+5V4+3V5+12O39(OH)9·9H2O,"{""Fe"": 5.0, ""V"": 15.0, ""O"": 57.0, ""H"": 27.0}",1982.514,#556B2F,monoclinic
Kaznakhtite,Ni6Co3+2(OH)16(CO3)·4H2O,"{""Ni"": 6.0, ""Co"": 2.0, ""O"": 23.0, ""H"": 24.0, ""C"": 1.0}",874.204,#FFFFFF,hexagonal
Kegelite,Pb4Al2Si4O10(SO4)(CO3)2(OH)4,"{""Pb"": 4.0, ""Al"": 2.0, ""Si"": 4.0, ""O"": 24.0, ""S"": 1.0, ""C"": 2.0, ""H"": 4.0}",1439.194,#FFFFFF,monoclinic
Kegginite,Pb3Ca3[AsV12O40(VO)]·20H2O,"{""Pb"": 3.0, ""Ca"": 3.0, ""As"": 1.0, ""V"": 13.0, ""O"": 61.0, ""H"": 40.0}",2495.261,#FFFFFF,hexagonal
Keilite,FeS,"{""Fe"": 1.0, ""S"": 1.0}",87.905,#DAA520,cubic
Keithconnite,Pd20Te7,"{""Pd"": 20.0, ""Te"": 7.0}",3021.6,#FFFFFF,hexagonal
Keiviite-(Y),Y2Si2O7,"{""Y"": 2.0, ""Si"": 2.0, ""O"": 7.0}",345.975,#FFFFFF,monoclinic
Keiviite-(Yb),Yb2Si2O7,"{""Yb"": 2.0, ""Si"": 2.0, ""O"": 7.0}",514.263,#FFFFFF,monoclinic
Keldyshite,Na2ZrSi2O7,"{""Na"": 2.0, ""Zr"": 1.0, ""Si"": 2.0, ""O"": 7.0}",305.367,#FFFFFF,triclinic
Kelyanite,Hg12SbO6BrCl2,"{""Hg"": 12.0, ""Sb"": 1.0, ""O"": 6.0, ""Br"": 1.0, ""Cl"": 2.0}",2775.638,#FFFFFF,hexagonal
Kemmlitzite,SrAl3(AsO4)(SO4)(OH)6,"{""Sr"": 1.0, ""Al"": 3.0, ""As"": 1.0, ""O"": 14.0, ""S"": 1.0, ""H"": 6.0}",505.582,#FFFFFF,hexagonal
Kenhsuite,Hg3S2Cl2,"{""Hg"": 3.0, ""S"": 2.0, ""Cl"": 2.0}",736.79,#A9A9A9,orthorhombic
Kennygayite,[Pb4O2(OH)2](SO4),"{""Pb"": 4.0, ""O"": 8.0, ""H"": 2.0, ""S"": 1.0}",990.868,#FFFFFF,triclinic
Kenotobermorite,Ca4Si6O15(OH)2(H2O)2·3H2O,"{""Ca"": 4.0, ""Si"": 6.0, ""O"": 22.0, ""H"": 12.0}",692.896,#FFFFFF,monoclinic
Kenyaite,Na2Si22O41(OH)8·6H2O,"{""Na"": 2.0, ""Si"": 22.0, ""O"": 55.0, ""H"": 20.0}",1563.955,#FFFFFF,tetragonal
Kerimasite,Ca3Zr2(SiFe3+2)O12,"{""Ca"": 3.0, ""Zr"": 2.0, ""Si"": 1.0, ""Fe"": 2.0, ""O"": 12.0}",634.445,#556B2F,cubic
Kermesite,Sb2OS2,"{""Sb"": 2.0, ""O"": 1.0, ""S"": 2.0}",323.639,#FFFF00,triclinic
Kernite,Na2B4O6(OH)2·3H2O,"{""Na"": 2.0, ""B"": 4.0, ""O"": 11.0, ""H"": 8.0}",273.273,#FFFFFF,monoclinic
Kernowite,Cu2Fe3+(AsO4)(OH)4·4H2O,"{""Cu"": 2.0, ""Fe"": 1.0, ""As"": 1.0, ""O"": 12.0, ""H"": 12.0}",461.943,#556B2F,monoclinic
Kettnerite,CaBiO(CO3)F,"{""Ca"": 1.0, ""Bi"": 1.0, ""O"": 4.0, ""C"": 1.0, ""F"": 1.0}",344.063,#FFFFFF,orthorhombic
Keutschite,Cu2AgAsS4,"{""Cu"": 2.0, ""Ag"": 1.0, ""As"": 1.0, ""S"": 4.0}",438.124,#FFD700,tetragonal
Khademite,Al(SO4)F·5H2O,"{""Al"": 1.0, ""S"": 1.0, ""O"": 9.0, ""F"": 1.0, ""H"": 10.0}",232.111,#FFFFFF,orthorhombic
Khaidarkanite,Cu4Al3(OH)14F3·2H2O,"{""Cu"": 4.0, ""Al"": 3.0, ""O"": 16.0, ""H"": 18.0, ""F"": 3.0}",666.252,#FFFFFF,monoclinic
Khamrabaevite,TiC,"{""Ti"": 1.0, ""C"": 1.0}",59.878,#FFFFFF,cubic
Khatyrkite,CuAl2,"{""Cu"": 1.0, ""Al"": 2.0}",117.51,#00BFFF,tetragonal
Khesinite,Ca4(Mg2Fe3+10)O4(Fe3+10Si2)O36,"{""Ca"": 4.0, ""Mg"": 2.0, ""Fe"": 20.0, ""O"": 40.0, ""Si"": 2.0}",2021.952,#556B2F,triclinic
Khibinskite,K2ZrSi2O7,"{""K"": 2.0, ""Zr"": 1.0, ""Si"": 2.0, ""O"": 7.0}",337.583,#FFFFFF,monoclinic
Khinite,Cu2+3PbTe6+O6(OH)2,"{""Cu"": 3.0, ""Pb"": 1.0, ""Te"": 1.0, ""O"": 8.0, ""H"": 2.0}",655.446,#FFFFFF,orthorhombic
Khmaralite,Mg4(Mg3Al9)O4[Si5Be2Al5O36],"{""Mg"": 7.0, ""Al"": 14.0, ""O"": 40.0, ""Si"": 5.0, ""Be"": 2.0}",1346.2924,#FFFFFF,monoclinic
Khrenovite,Na3Fe3+2(AsO4)3,"{""Na"": 3.0, ""Fe"": 2.0, ""As"": 3.0, ""O"": 12.0}",597.414,#556B2F,monoclinic
Khvorovite,Pb4Ca2[Si8B2(SiB)O28]F,"{""Pb"": 4.0, ""Ca"": 2.0, ""Si"": 9.0, ""B"": 3.0, ""O"": 28.0, ""F"": 1.0}",1661.121,#FFFFFF,triclinic
Kieftite,CoSb3,"{""Co"": 1.0, ""Sb"": 3.0}",424.213,#4169E1,cubic
Kieserite,Mg(SO4)·H2O,"{""Mg"": 1.0, ""S"": 1.0, ""O"": 5.0, ""H"": 2.0}",138.376,#FFFFFF,monoclinic
Kihlmanite-(Ce),Ce2TiO2(SiO4)(HCO3)2(H2O),"{""Ce"": 2.0, ""Ti"": 1.0, ""O"": 13.0, ""Si"": 1.0, ""H"": 4.0, ""C"": 2.0}",592.233,#FFFFFF,triclinic
Kilchoanite,Ca6(SiO4)(Si3O10),"{""Ca"": 6.0, ""Si"": 4.0, ""O"": 14.0}",576.794,#FFFFFF,orthorhombic
Kimuraite-(Y),CaY2(CO3)4·6H2O,"{""Ca"": 1.0, ""Y"": 2.0, ""C"": 4.0, ""O"": 18.0, ""H"": 12.0}",566.012,#FFFFFF,orthorhombic
Kimzeyite,Ca3Zr2(SiAl2)O12,"{""Ca"": 3.0, ""Zr"": 2.0, ""Si"": 1.0, ""Al"": 2.0, ""O"": 12.0}",576.719,#FFFFFF,cubic
Kingite,Al3(PO4)2F2(OH)·7H2O,"{""Al"": 3.0, ""P"": 2.0, ""O"": 16.0, ""F"": 2.0, ""H"": 15.0}",451.994,#FFFFFF,triclinic
Kingsgateite,ZrMo6+2O7(OH)2·2H2O,"{""Zr"": 1.0, ""Mo"": 2.0, ""O"": 11.0, ""H"": 6.0}",465.161,#FFFFFF,tetragonal
Kingstonite,Rh3S4,"{""Rh"": 3.0, ""S"": 4.0}",436.97,#A9A9A9,monoclinic
Kinoite,Ca2Cu2Si3O10·2H2O,"{""Ca"": 2.0, ""Cu"": 2.0, ""Si"": 3.0, ""O"": 12.0, ""H"": 4.0}",487.523,#FFFFFF,monoclinic
Kinoshitalite,BaMg3(Si2Al2O10)(OH)2,"{""Ba"": 1.0, ""Mg"": 3.0, ""Si"": 2.0, ""Al"": 2.0, ""O"": 12.0, ""H"": 2.0}",514.383,#FFFFFF,monoclinic
Kintoreite,PbFe3+3(PO4)(PO3OH)(OH)6,"{""Pb"": 1.0, ""Fe"": 3.0, ""P"": 2.0, ""O"": 14.0, ""H"": 7.0}",667.725,#556B2F,hexagonal
Kipushite,Cu6(PO4)2(OH)6·H2O,"{""Cu"": 6.0, ""P"": 2.0, ""O"": 15.0, ""H"": 8.0}",691.273,#FFFFFF,monoclinic
Kirchhoffite,CsBSi2O6,"{""Cs"": 1.0, ""B"": 1.0, ""Si"": 2.0, ""O"": 6.0}",295.884,#FFFFFF,tetragonal
Kirkiite,Pb10Bi3As3S19,"{""Pb"": 10.0, ""Bi"": 3.0, ""As"": 3.0, ""S"": 19.0}",3532.846,#708090,monoclinic
Kirschsteinite,CaFe2+(SiO4),"{""Ca"": 1.0, ""Fe"": 1.0, ""Si"": 1.0, ""O"": 4.0}",188.004,#556B2F,orthorhombic
Kishonite,VH2,"{""V"": 1.0, ""H"": 2.0}",52.958,#FFFFFF,cubic
Kitagohaite,Pt7Cu,"{""Pt"": 7.0, ""Cu"": 1.0}",1429.106,#00BFFF,cubic
Kitkaite,NiTeSe,"{""Ni"": 1.0, ""Te"": 1.0, ""Se"": 1.0}",265.264,#7FFF00,hexagonal
Kladnoite,C6H4(CO)2NH,"{""C"": 8.0, ""H"": 5.0, ""O"": 2.0, ""N"": 1.0}",147.133,#FFFFFF,monoclinic
Klaprothite,Na6(UO2)(SO4)4(H2O)4,"{""Na"": 6.0, ""U"": 1.0, ""O"": 22.0, ""S"": 4.0, ""H"": 8.0}",864.252,#FFFFFF,monoclinic
Klebelsbergite,Sb3+4O4(SO4)(OH)2,"{""Sb"": 4.0, ""O"": 10.0, ""S"": 1.0, ""H"": 2.0}",681.106,#FFFFFF,orthorhombic
Kleberite,Fe3+Ti6O11(OH)5,"{""Fe"": 1.0, ""Ti"": 6.0, ""O"": 16.0, ""H"": 5.0}",604.071,#556B2F,monoclinic
Klyuchevskite,K3Cu3Fe3+O2(SO4)4,"{""K"": 3.0, ""Cu"": 3.0, ""Fe"": 1.0, ""O"": 18.0, ""S"": 4.0}",779.999,#556B2F,monoclinic
Knasibfite,K3Na4(SiF6)3(BF4),"{""K"": 3.0, ""Na"": 4.0, ""Si"": 3.0, ""F"": 22.0, ""B"": 1.0}",722.275,#FFFFFF,orthorhombic
Knorringite,Mg3Cr2(SiO4)3,"{""Mg"": 3.0, ""Cr"": 2.0, ""Si"": 3.0, ""O"": 12.0}",453.15,#FFFFFF,cubic
Koashvite,Na6CaTiSi6O18,"{""Na"": 6.0, ""Ca"": 1.0, ""Ti"": 1.0, ""Si"": 6.0, ""O"": 18.0}",682.377,#FFFFFF,orthorhombic
Kobokoboite,Al6(PO4)4(OH)6·11H2O,"{""Al"": 6.0, ""P"": 4.0, ""O"": 33.0, ""H"": 28.0}",841.979,#FFFFFF,triclinic
Kobyashevite,Cu5(SO4)2(OH)6·4H2O,"{""Cu"": 5.0, ""S"": 2.0, ""O"": 18.0, ""H"": 14.0}",683.944,#FFFFFF,triclinic
Kochkarite,PbBi4Te7,"{""Pb"": 1.0, ""Bi"": 4.0, ""Te"": 7.0}",1936.32,#D2B48C,hexagonal
Kochsandorite,CaAl2(CO3)2(OH)4·H2O,"{""Ca"": 1.0, ""Al"": 2.0, ""C"": 2.0, ""O"": 11.0, ""H"": 6.0}",300.101,#FFFFFF,orthorhombic
Koechlinite,Bi2MoO6,"{""Bi"": 2.0, ""Mo"": 1.0, ""O"": 6.0}",609.904,#D2B48C,orthorhombic
Koenenite,Na4Mg9Al4Cl12(OH)22,"{""Na"": 4.0, ""Mg"": 9.0, ""Al"": 4.0, ""Cl"": 12.0, ""O"": 22.0, ""H"": 22.0}",1218.187,#FFFFFF,hexagonal
Kogarkoite,Na3(SO4)F,"{""Na"": 3.0, ""S"": 1.0, ""O"": 4.0, ""F"": 1.0}",184.024,#FFFFFF,monoclinic
Kokchetavite,K(AlSi3O8),"{""K"": 1.0, ""Al"": 1.0, ""Si"": 3.0, ""O"": 8.0}",278.327,#FFFFFF,hexagonal
Kokinosite,Na2Ca2(V10O28)·24H2O,"{""Na"": 2.0, ""Ca"": 2.0, ""V"": 10.0, ""O"": 52.0, ""H"": 48.0}",1515.888,#FFFFFF,triclinic
Koksharovite,CaMg2Fe3+4(VO4)6,"{""Ca"": 1.0, ""Mg"": 2.0, ""Fe"": 4.0, ""V"": 6.0, ""O"": 24.0}",1001.696,#556B2F,triclinic
Koktaite,(NH4)2Ca(SO4)2·H2O,"{""N"": 2.0, ""H"": 10.0, ""Ca"": 1.0, ""S"": 2.0, ""O"": 9.0}",286.283,#FFFFFF,
Kolarite,PbTeCl2,"{""Pb"": 1.0, ""Te"": 1.0, ""Cl"": 2.0}",405.7,#FFFFFF,orthorhombic
Kolbeckite,Sc(PO4)·2H2O,"{""Sc"": 1.0, ""P"": 1.0, ""O"": 6.0, ""H"": 4.0}",175.956,#FFFFFF,monoclinic
Kolfanite,Ca2Fe3+3O2(AsO4)3·2H2O,"{""Ca"": 2.0, ""Fe"": 3.0, ""O"": 16.0, ""As"": 3.0, ""H"": 4.0}",732.473,#556B2F,monoclinic
Kollerite,(NH4)2Fe3+(SO3)2(OH)·H2O,"{""N"": 2.0, ""H"": 11.0, ""Fe"": 1.0, ""S"": 2.0, ""O"": 8.0}",287.059,#556B2F,orthorhombic
Kolwezite,CuCo(CO3)(OH)2,"{""Cu"": 1.0, ""Co"": 1.0, ""C"": 1.0, ""O"": 5.0, ""H"": 2.0}",216.501,#FFFFFF,triclinic
Kolymite,Cu7Hg6,"{""Cu"": 7.0, ""Hg"": 6.0}",1648.362,#00BFFF,cubic
Kombatite,Pb14O9(VO4)2Cl4,"{""Pb"": 14.0, ""O"": 17.0, ""V"": 2.0, ""Cl"": 4.0}",3416.467,#FFFFFF,monoclinic
Komkovite,BaZrSi3O9·3H2O,"{""Ba"": 1.0, ""Zr"": 1.0, ""Si"": 3.0, ""O"": 12.0, ""H"": 6.0}",510.845,#FFFFFF,hexagonal
Konderite,PbCu3Rh8S16,"{""Pb"": 1.0, ""Cu"": 3.0, ""Rh"": 8.0, ""S"": 16.0}",1734.078,#708090,hexagonal
Koninckite,Fe3+(PO4)·3H2O,"{""Fe"": 1.0, ""P"": 1.0, ""O"": 7.0, ""H"": 6.0}",204.86,#556B2F,tetragonal
Kononovite,NaMg(SO4)F,"{""Na"": 1.0, ""Mg"": 1.0, ""S"": 1.0, ""O"": 4.0, ""F"": 1.0}",162.349,#FFFFFF,monoclinic
Konyaite,Na2Mg(SO4)2·5H2O,"{""Na"": 2.0, ""Mg"": 1.0, ""S"": 2.0, ""O"": 13.0, ""H"": 10.0}",352.472,#FFFFFF,monoclinic
Kornelite,Fe3+2(SO4)3·7H2O (?),"{""Fe"": 2.0, ""S"": 3.0, ""O"": 19.0, ""H"": 14.0}",525.963,#556B2F,monoclinic
Korshunovskite,Mg2Cl(OH)3·4H2O,"{""Mg"": 2.0, ""Cl"": 1.0, ""O"": 7.0, ""H"": 11.0}",207.141,#FFFFFF,triclinic
Koryakite,NaKMg2Al2(SO4)6,"{""Na"": 1.0, ""K"": 1.0, ""Mg"": 2.0, ""Al"": 2.0, ""S"": 6.0, ""O"": 24.0}",740.998,#FFFFFF,hexagonal
Kosmochlor,NaCr3+Si2O6,"{""Na"": 1.0, ""Cr"": 1.0, ""Si"": 2.0, ""O"": 6.0}",227.15,#FFFFFF,monoclinic
Kosnarite,KZr2(PO4)3,"{""K"": 1.0, ""Zr"": 2.0, ""P"": 3.0, ""O"": 12.0}",506.456,#FFFFFF,hexagonal
Kostovite,AuCuTe4,"{""Au"": 1.0, ""Cu"": 1.0, ""Te"": 4.0}",770.916,#00BFFF,
Kostylevite,K2ZrSi3O9·H2O,"{""K"": 2.0, ""Zr"": 1.0, ""Si"": 3.0, ""O"": 10.0, ""H"": 2.0}",415.681,#FFFFFF,monoclinic
Kotoite,Mg3(BO3)2,"{""Mg"": 3.0, ""B"": 2.0, ""O"": 6.0}",190.529,#FFFFFF,orthorhombic
Kottenheimite,Ca3Si(SO4)2(OH)6·12H2O,"{""Ca"": 3.0, ""Si"": 1.0, ""S"": 2.0, ""O"": 26.0, ""H"": 30.0}",658.653,#FFFFFF,hexagonal
Koutekite,Cu5As2,"{""Cu"": 5.0, ""As"": 2.0}",467.574,#00BFFF,orthorhombic
Kovdorskite,Mg2(PO4)(OH)·3H2O,"{""Mg"": 2.0, ""P"": 1.0, ""O"": 8.0, ""H"": 7.0}",214.632,#FFFFFF,monoclinic
Kozoite-(La),La(CO3)(OH),"{""La"": 1.0, ""C"": 1.0, ""O"": 4.0, ""H"": 1.0}",215.925,#FFFFFF,orthorhombic
Kozoite-(Nd),Nd(CO3)(OH),"{""Nd"": 1.0, ""C"": 1.0, ""O"": 4.0, ""H"": 1.0}",221.255,#FFFFFF,orthorhombic
Kozyrevskite,Cu4O(AsO4)2,"{""Cu"": 4.0, ""O"": 9.0, ""As"": 2.0}",548.019,#00BFFF,orthorhombic
Kralikite,BaCl2·2H2O,"{""Ba"": 1.0, ""Cl"": 2.0, ""H"": 4.0, ""O"": 2.0}",244.26,#FFFFFF,monoclinic
Krasheninnikovite,KNa2CaMg(SO4)3F,"{""K"": 1.0, ""Na"": 2.0, ""Ca"": 1.0, ""Mg"": 1.0, ""S"": 3.0, ""O"": 12.0, ""F"": 1.0}",456.627,#FFFFFF,hexagonal
Krasnoshteinite,Al8[B2O4(OH)2](OH)16Cl4·7H2O,"{""Al"": 8.0, ""B"": 2.0, ""O"": 29.0, ""H"": 32.0, ""Cl"": 4.0}",875.503,#FFFFFF,monoclinic
Kratochvilite,C13H10,"{""C"": 13.0, ""H"": 10.0}",166.223,#FFFFFF,orthorhombic
Krausite,KFe3+(SO4)2·H2O,"{""K"": 1.0, ""Fe"": 1.0, ""S"": 2.0, ""O"": 9.0, ""H"": 2.0}",305.07,#556B2F,monoclinic
Krauskopfite,BaSi2O5·3H2O,"{""Ba"": 1.0, ""Si"": 2.0, ""O"": 8.0, ""H"": 6.0}",327.54,#FFFFFF,monoclinic
Kravtsovite,PdAg2S,"{""Pd"": 1.0, ""Ag"": 2.0, ""S"": 1.0}",354.22,#A9A9A9,orthorhombic
Kreiterite,CsLi2Fe3+Si4O10F2,"{""Cs"": 1.0, ""Li"": 2.0, ""Fe"": 1.0, ""Si"": 4.0, ""O"": 10.0, ""F"": 2.0}",512.961,#556B2F,monoclinic
Kremersite,(NH4)2Fe3+Cl5·H2O,"{""N"": 2.0, ""H"": 10.0, ""Fe"": 1.0, ""Cl"": 5.0, ""O"": 1.0}",287.188,#556B2F,orthorhombic
Krennerite,Au3AgTe8,"{""Au"": 3.0, ""Ag"": 1.0, ""Te"": 8.0}",1719.58,#FFD700,orthorhombic
Kribergite,Al5(PO4)3(SO4)(OH)4·4H2O,"{""Al"": 5.0, ""P"": 3.0, ""O"": 24.0, ""S"": 1.0, ""H"": 12.0}",655.964,#FFFFFF,
Krieselite,Al2(GeO4)F2,"{""Al"": 2.0, ""Ge"": 1.0, ""O"": 4.0, ""F"": 2.0}",228.586,#FFFFFF,orthorhombic
Krinovite,Na4[Mg8Cr3+4]O4[Si12O36],"{""Na"": 4.0, ""Mg"": 8.0, ""Cr"": 4.0, ""O"": 40.0, ""Si"": 12.0}",1471.364,#FFFFFF,triclinic
Kristjanite,KNa2H(SO4)2,"{""K"": 1.0, ""Na"": 2.0, ""H"": 1.0, ""S"": 2.0, ""O"": 8.0}",278.198,#FFFFFF,monoclinic
Krivovichevite,Pb3Al(OH)6(SO4)(OH),"{""Pb"": 3.0, ""Al"": 1.0, ""O"": 11.0, ""H"": 7.0, ""S"": 1.0}",863.687,#FFFFFF,hexagonal
Krohnkite,Na2Cu(SO4)2·2H2O,"{""Na"": 2.0, ""Cu"": 1.0, ""S"": 2.0, ""O"": 10.0, ""H"": 4.0}",337.668,#FFFFFF,monoclinic
Krotite,CaAl2O4,"{""Ca"": 1.0, ""Al"": 2.0, ""O"": 4.0}",158.038,#FFFFFF,monoclinic
Kruijenite,Ca4Al4(SO4)F2(OH)16·2H2O,"{""Ca"": 4.0, ""Al"": 4.0, ""S"": 1.0, ""O"": 22.0, ""F"": 2.0, ""H"": 20.0}",710.434,#FFFFFF,tetragonal
Krupickaite,Cu6[AsO3(OH)]6·8H2O,"{""Cu"": 6.0, ""As"": 6.0, ""O"": 32.0, ""H"": 22.0}",1364.952,#FFFFFF,monoclinic
Krupkaite,PbCuBi3S6,"{""Pb"": 1.0, ""Cu"": 1.0, ""Bi"": 3.0, ""S"": 6.0}",1090.046,#708090,orthorhombic
Krutaite,CuSe2,"{""Cu"": 1.0, ""Se"": 2.0}",221.488,#00BFFF,cubic
Krutovite,NiAs2,"{""Ni"": 1.0, ""As"": 2.0}",208.537,#7FFF00,cubic
Kudryavtsevaite,Na3MgFe3+Ti4O12,"{""Na"": 3.0, ""Mg"": 1.0, ""Fe"": 1.0, ""Ti"": 4.0, ""O"": 12.0}",532.576,#556B2F,orthorhombic
Kufahrite,PtPb,"{""Pt"": 1.0, ""Pb"": 1.0}",402.28,#FFFFFF,hexagonal
Kukharenkoite-(Ce),Ba2Ce(CO3)3F,"{""Ba"": 2.0, ""Ce"": 1.0, ""C"": 3.0, ""O"": 9.0, ""F"": 1.0}",613.802,#FFFFFF,monoclinic
Kukharenkoite-(La),Ba2La(CO3)3F,"{""Ba"": 2.0, ""La"": 1.0, ""C"": 3.0, ""O"": 9.0, ""F"": 1.0}",612.592,#FFFFFF,monoclinic
Kulanite,BaFe2+2Al2(PO4)3(OH)3,"{""Ba"": 1.0, ""Fe"": 2.0, ""Al"": 2.0, ""P"": 3.0, ""O"": 15.0, ""H"": 3.0}",638.915,#556B2F,monoclinic
Kuliginite,Fe3Mg(OH)6Cl2,"{""Fe"": 3.0, ""Mg"": 1.0, ""O"": 6.0, ""H"": 6.0, ""Cl"": 2.0}",364.782,#556B2F,hexagonal
Kuliokite-(Y),Y4Al(SiO4)2(OH)2F5,"{""Y"": 4.0, ""Al"": 1.0, ""Si"": 2.0, ""O"": 10.0, ""H"": 2.0, ""F"": 5.0}",695.772,#FFFFFF,triclinic
Kullerudite,NiSe2,"{""Ni"": 1.0, ""Se"": 2.0}",216.635,#7FFF00,orthorhombic
Kumdykolite,Na(AlSi3O8),"{""Na"": 1.0, ""Al"": 1.0, ""Si"": 3.0, ""O"": 8.0}",262.219,#FFFFFF,orthorhombic
Kumtyubeite,Ca5(SiO4)2F2,"{""Ca"": 5.0, ""Si"": 2.0, ""O"": 8.0, ""F"": 2.0}",422.548,#FFFFFF,monoclinic
Kunatite,CuFe3+2(PO4)2(OH)2·4H2O,"{""Cu"": 1.0, ""Fe"": 2.0, ""P"": 2.0, ""O"": 14.0, ""H"": 10.0}",471.25,#556B2F,monoclinic
Kuratite,Ca2(Fe2+5Ti)O2[Si4Al2O18],"{""Ca"": 2.0, ""Fe"": 5.0, ""Ti"": 1.0, ""O"": 20.0, ""Si"": 4.0, ""Al"": 2.0}",893.532,#556B2F,triclinic
Kurchatovite,CaMgB2O5,"{""Ca"": 1.0, ""Mg"": 1.0, ""B"": 2.0, ""O"": 5.0}",165.998,#FFFFFF,orthorhombic
Kurgantaite,CaSrB5O9Cl·H2O,"{""Ca"": 1.0, ""Sr"": 1.0, ""B"": 5.0, ""O"": 10.0, ""Cl"": 1.0, ""H"": 2.0}",379.204,#FFFFFF,triclinic
Kurilite,Ag8Te3Se,"{""Ag"": 8.0, ""Te"": 3.0, ""Se"": 1.0}",1324.731,#C0C0C0,hexagonal
Kurnakovite,MgB3O3(OH)5·5H2O,"{""Mg"": 1.0, ""B"": 3.0, ""O"": 13.0, ""H"": 15.0}",279.842,#FFFFFF,triclinic
Kusachiite,Cu2+Bi3+2O4,"{""Cu"": 1.0, ""Bi"": 2.0, ""O"": 4.0}",545.502,#00BFFF,tetragonal
Kushiroite,CaAlAlSiO6,"{""Ca"": 1.0, ""Al"": 2.0, ""Si"": 1.0, ""O"": 6.0}",218.121,#FFFFFF,monoclinic
Kutinaite,Ag6Cu14As7,"{""Ag"": 6.0, ""Cu"": 14.0, ""As"": 7.0}",2061.318,#00BFFF,cubic
Kuvaevite,Ir5Ni10S16,"{""Ir"": 5.0, ""Ni"": 10.0, ""S"": 16.0}",2060.99,#A9A9A9,hexagonal
Kuzelite,Ca4Al2(OH)12(SO4)·6H2O,"{""Ca"": 4.0, ""Al"": 2.0, ""O"": 22.0, ""H"": 24.0, ""S"": 1.0}",622.506,#FFFFFF,hexagonal
Kuzminite,HgBr,"{""Hg"": 1.0, ""Br"": 1.0}",280.494,#FFFFFF,tetragonal
Kuznetsovite,Hg1+2Hg2+(AsO4)Cl,"{""Hg"": 3.0, ""As"": 1.0, ""O"": 4.0, ""Cl"": 1.0}",776.138,#FFFFFF,cubic
Kvacekite,NiSbSe,"{""Ni"": 1.0, ""Sb"": 1.0, ""Se"": 1.0}",259.424,#7FFF00,cubic
Kvanefjeldite,Na4CaSi6O14(OH)2,"{""Na"": 4.0, ""Ca"": 1.0, ""Si"": 6.0, ""O"": 16.0, ""H"": 2.0}",558.548,#FFFFFF,orthorhombic
Kyanite,Al2OSiO4,"{""Al"": 2.0, ""O"": 5.0, ""Si"": 1.0}",162.044,#FFFFFF,triclinic
Kyawthuite,Bi3+Sb5+O4,"{""Bi"": 1.0, ""Sb"": 1.0, ""O"": 4.0}",394.736,#A9A9A9,monoclinic
Kyzylkumite,Ti2V3+O5(OH),"{""Ti"": 2.0, ""V"": 1.0, ""O"": 6.0, ""H"": 1.0}",243.678,#FFFFFF,monoclinic
Labuntsovite-Fe,Na4K4Fe2+2Ti8O4(Si4O12)4(OH)4·10-12H2O,"{""Na"": 4.0, ""K"": 4.0, ""Fe"": 2.0, ""Ti"": 8.0, ""O"": 68.0, ""Si"": 16.0, ""H"": 28.0}",2308.494,#556B2F,monoclinic
Labuntsovite-Mg,Na4K4Mg2Ti8O4(Si4O12)4(OH)4·10-12H2O,"{""Na"": 4.0, ""K"": 4.0, ""Mg"": 2.0, ""Ti"": 8.0, ""O"": 68.0, ""Si"": 16.0, ""H"": 28.0}",2245.414,#FFFFFF,monoclinic
Lacroixite,NaAl(PO4)F,"{""Na"": 1.0, ""Al"": 1.0, ""P"": 1.0, ""O"": 4.0, ""F"": 1.0}",163.94,#FFFFFF,monoclinic
Laffittite,AgHgAsS3,"{""Ag"": 1.0, ""Hg"": 1.0, ""As"": 1.0, ""S"": 3.0}",479.562,#FFD700,monoclinic
Laflammeite,Pd3Pb2S2,"{""Pd"": 3.0, ""Pb"": 2.0, ""S"": 2.0}",797.78,#708090,monoclinic
Lafossaite,TlCl,"{""Tl"": 1.0, ""Cl"": 1.0}",239.83,#FFFFFF,cubic
Lakargiite,CaZrO3,"{""Ca"": 1.0, ""Zr"": 1.0, ""O"": 3.0}",179.299,#FFFFFF,orthorhombic
Lakebogaite,NaCaFe2H(UO2)2(PO4)4(OH)2·8H2O,"{""Na"": 1.0, ""Ca"": 1.0, ""Fe"": 2.0, ""H"": 19.0, ""U"": 2.0, ""O"": 30.0, ""P"": 4.0}",1273.836,#556B2F,monoclinic
Lammerite,Cu3(AsO4)2,"{""Cu"": 3.0, ""As"": 2.0, ""O"": 8.0}",468.474,#00BFFF,monoclinic
Lamprophyllite,(SrNa)Ti2Na3Ti(Si2O7)2O2(OH)2,"{""Sr"": 1.0, ""Na"": 4.0, ""Ti"": 3.0, ""Si"": 4.0, ""O"": 18.0, ""H"": 2.0}",725.519,#FFFFFF,orthorhombic
Lanarkite,Pb2O(SO4),"{""Pb"": 2.0, ""O"": 5.0, ""S"": 1.0}",526.455,#FFFF00,monoclinic
Langbeinite,K2Mg2(SO4)3,"{""K"": 2.0, ""Mg"": 2.0, ""S"": 3.0, ""O"": 12.0}",414.974,#FFFFFF,cubic
Langhofite,Pb2(OH)[WO4(OH)],"{""Pb"": 2.0, ""O"": 6.0, ""H"": 2.0, ""W"": 1.0}",696.25,#FFFFFF,triclinic
Langisite,CoAs,"{""Co"": 1.0, ""As"": 1.0}",133.855,#4169E1,orthorhombic
Langite,Cu4(SO4)(OH)6·2H2O,"{""Cu"": 4.0, ""S"": 1.0, ""O"": 12.0, ""H"": 10.0}",488.312,#FFFFFF,monoclinic
Lanmuchangite,TlAl(SO4)2·12H2O,"{""Tl"": 1.0, ""Al"": 1.0, ""S"": 2.0, ""O"": 20.0, ""H"": 24.0}",639.654,#FFFFFF,cubic
Lannonite,HCa4Mg2Al4(SO4)8F9·32H2O,"{""H"": 65.0, ""Ca"": 4.0, ""Mg"": 2.0, ""Al"": 4.0, ""S"": 8.0, ""O"": 64.0, ""F"": 9.0}",1833.768,#FFFFFF,tetragonal
Lansfordite,Mg(CO3)·5H2O,"{""Mg"": 1.0, ""C"": 1.0, ""O"": 8.0, ""H"": 10.0}",174.388,#FFFFFF,monoclinic
Lanthanite-(Ce),Ce2(CO3)3·8H2O,"{""Ce"": 2.0, ""C"": 3.0, ""O"": 17.0, ""H"": 16.0}",604.384,#FFFFFF,orthorhombic
Lanthanite-(La),La2(CO3)3·8H2O,"{""La"": 2.0, ""C"": 3.0, ""O"": 17.0, ""H"": 16.0}",601.964,#FFFFFF,orthorhombic
Lanthanite-(Nd),Nd2(CO3)3·8H2O,"{""Nd"": 2.0, ""C"": 3.0, ""O"": 17.0, ""H"": 16.0}",612.624,#FFFFFF,orthorhombic
Lapeyreite,Cu3O[AsO3(OH)]2·H2O,"{""Cu"": 3.0, ""O"": 10.0, ""As"": 2.0, ""H"": 4.0}",504.504,#FFFFFF,monoclinic
Laphamite,As2Se3,"{""As"": 2.0, ""Se"": 3.0}",386.757,#808080,monoclinic
Lapieite,CuNiSbS3,"{""Cu"": 1.0, ""Ni"": 1.0, ""Sb"": 1.0, ""S"": 3.0}",340.179,#A9A9A9,orthorhombic
Laplandite-(Ce),Na4CeTiPSi7O22·5H2O,"{""Na"": 4.0, ""Ce"": 1.0, ""Ti"": 1.0, ""P"": 1.0, ""Si"": 7.0, ""O"": 27.0, ""H"": 10.0}",949.569,#FFFFFF,orthorhombic
Laptevite-(Ce),NaFe2+(REE7Ca5Y3)(SiO4)4(Si3B2PO18)(BO3)F11,"{""Na"": 1.0, ""Fe"": 1.0, ""Ca"": 5.0, ""Y"": 3.0, ""Si"": 7.0, ""O"": 37.0, ""B"": 3.0, ""P"": 1.0, ""F"": 11.0}",1606.883,#556B2F,hexagonal
Larderellite,(NH4)B5O7(OH)2·H2O,"{""N"": 1.0, ""H"": 8.0, ""B"": 5.0, ""O"": 10.0}",236.111,#FFFFFF,monoclinic
Larisaite,Na(H3O)(UO2)3(Se4+O3)2O2·4H2O,"{""Na"": 1.0, ""H"": 11.0, ""O"": 19.0, ""U"": 3.0, ""Se"": 2.0}",1210.091,#FFFFFF,monoclinic
Larnite,Ca2(SiO4),"{""Ca"": 2.0, ""Si"": 1.0, ""O"": 4.0}",172.237,#FFFFFF,monoclinic
Lasalite,Na2Mg2V10O28·20H2O,"{""Na"": 2.0, ""Mg"": 2.0, ""V"": 10.0, ""O"": 48.0, ""H"": 40.0}",1412.282,#FFFFFF,monoclinic
Latrappite,Ca2NbFe3+O6,"{""Ca"": 2.0, ""Nb"": 1.0, ""Fe"": 1.0, ""O"": 6.0}",324.901,#556B2F,orthorhombic