name,formula,elements,density,color,crystal,pm_ids,gacha_weight
Gartrellite,PbCuFe3+(AsO4)2(OH)·H2O,"{""Pb"": 1.0, ""Cu"": 1.0, ""Fe"": 1.0, ""As"": 2.0, ""O"": 10.0, ""H"": 3.0}",639.449,#556B2F,triclinic,{47},1.5015e-07
Garyansellite,Mg2Fe3+(PO4)2(OH)·2H2O,"{""Mg"": 2.0, ""Fe"": 1.0, ""P"": 2.0, ""O"": 11.0, ""H"": 5.0}",347.432,#556B2F,orthorhombic,{47},1.5015e-08
Gasparite-(Ce),Ce(AsO4),"{""Ce"": 1.0, ""As"": 1.0, ""O"": 4.0}",279.038,#808080,monoclinic,"{40,47}",9.554539e-06
Gasparite-(La),La(AsO4),"{""La"": 1.0, ""As"": 1.0, ""O"": 4.0}",277.828,#808080,monoclinic,{40},9.404389e-06
Gaspeite,Ni(CO3),"{""Ni"": 1.0, ""C"": 1.0, ""O"": 3.0}",118.701,#7FFF00,hexagonal,{47},1.5015e-07
Gatedalite,ZrMn2+2Mn3+4O8(SiO4),"{""Zr"": 1.0, ""Mn"": 6.0, ""O"": 12.0, ""Si"": 1.0}",640.925,#FFFFFF,tetragonal,{32},1.214e-09
Gatehouseite,Mn2+5(PO4)2(OH)4,"{""Mn"": 5.0, ""P"": 2.0, ""O"": 12.0, ""H"": 4.0}",532.658,#FFFFFF,orthorhombic,{22},2.024e-09
Gatewayite,Ca6(As3+V4+3V5+9As5+6O51)·31H2O,"{""Ca"": 6.0, ""As"": 7.0, ""V"": 12.0, ""O"": 82.0, ""H"": 62.0}",2750.64,#FFFFFF,monoclinic,{47},1.5015e-07
Gatumbaite,CaAl2(PO4)2(OH)2·H2O,"{""Ca"": 1.0, ""Al"": 2.0, ""P"": 2.0, ""O"": 11.0, ""H"": 4.0}",336.011,#FFFFFF,monoclinic,"{22,34}",5.822e-09
Gaudefroyite,Ca4Mn3+3(BO3)3(CO3)O3,"{""Ca"": 4.0, ""Mn"": 3.0, ""B"": 3.0, ""O"": 15.0, ""C"": 1.0}",609.552,#FFFFFF,hexagonal,{23},8.794e-08
Gaultite,Na4Zn2Si7O18·5H2O,"{""Na"": 4.0, ""Zn"": 2.0, ""Si"": 7.0, ""O"": 23.0, ""H"": 10.0}",797.372,#FFFFFF,orthorhombic,{35},1.3774e-08
Gauthierite,KPb[(UO2)7O5(OH)7]·8H2O,"{""K"": 1.0, ""Pb"": 1.0, ""U"": 7.0, ""O"": 34.0, ""H"": 23.0}",2479.658,#FFFFFF,monoclinic,"{27,47}",1.261261e-06
Gayite,NaMnFe5(PO4)4(OH)6·2H2O,"{""Na"": 1.0, ""Mn"": 1.0, ""Fe"": 5.0, ""P"": 4.0, ""O"": 24.0, ""H"": 10.0}",875.105,#556B2F,monoclinic,"{34,47}",8.394e-09
Gaylussite,Na2Ca(CO3)2·5H2O,"{""Na"": 2.0, ""Ca"": 1.0, ""C"": 2.0, ""O"": 11.0, ""H"": 10.0}",296.149,#FFFFFF,monoclinic,"{23,25,47}",1.956563e-06
Gazeevite,BaCa6(SiO4)2(SO4)2O,"{""Ba"": 1.0, ""Ca"": 6.0, ""Si"": 2.0, ""O"": 17.0, ""S"": 2.0}",770.071,#FFFFFF,hexagonal,{51},1.563e-09
Gearksutite,CaAlF4(OH)·H2O,"{""Ca"": 1.0, ""Al"": 1.0, ""F"": 4.0, ""O"": 2.0, ""H"": 3.0}",178.074,#FFFFFF,triclinic,"{23,34,45}",9.0005e-08
Gebhardite,Pb8As3+4O11Cl6,"{""Pb"": 8.0, ""As"": 4.0, ""O"": 11.0, ""Cl"": 6.0}",2345.977,#FFFFFF,monoclinic,{47},1.5015e-07
Geerite,Cu8S5,"{""Cu"": 8.0, ""S"": 5.0}",668.668,#A9A9A9,cubic,{33},2.51e-10
Gehlenite,Ca2Al(SiAl)O7,"{""Ca"": 2.0, ""Al"": 2.0, ""Si"": 1.0, ""O"": 7.0}",274.198,#FFFFFF,tetragonal,"{3,6,8,31,35,36,38,40,51}",2.126808e-05
Geigerite,Mn2+5(AsO4)2(AsO3OH)2·10H2O,"{""Mn"": 5.0, ""As"": 4.0, ""O"": 26.0, ""H"": 22.0}",1012.528,#FFFFFF,triclinic,{47},7.508e-09
Geikielite,MgTiO3,"{""Mg"": 1.0, ""Ti"": 1.0, ""O"": 3.0}",120.169,#FFFFFF,hexagonal,"{5,7,13,26,31,36,50,54}",1.55627e-07
Geminite,Cu2+(AsO3OH)·H2O,"{""Cu"": 1.0, ""As"": 1.0, ""O"": 5.0, ""H"": 3.0}",221.487,#FFFFFF,triclinic,"{47,55}",1.88029e-07
Gengenbachite,KFe3(H2PO4)2(HPO4)4·6H2O,"{""K"": 1.0, ""Fe"": 3.0, ""H"": 20.0, ""P"": 6.0, ""O"": 30.0}",892.607,#556B2F,hexagonal,{47},1.5015e-08
Genkinite,Pt4Sb3,"{""Pt"": 4.0, ""Sb"": 3.0}",1145.6,#A9A9A9,tetragonal,"{7,26,36,37}",2.29739e-07
Genplesite,Ca3Sn(SO4)2(OH)6·3H2O,"{""Ca"": 3.0, ""Sn"": 1.0, ""S"": 2.0, ""O"": 17.0, ""H"": 12.0}",587.143,#FFFFFF,hexagonal,{47},3.003e-09
Genthelvite,Be3Zn4(SiO4)3S,"{""Be"": 3.0, ""Zn"": 4.0, ""Si"": 3.0, ""O"": 12.0, ""S"": 1.0}",596.8596,#FFFFFF,cubic,"{23,34,35,40}",2.23894e-07
Geocronite,Pb14Sb6S23,"{""Pb"": 14.0, ""Sb"": 6.0, ""S"": 23.0}",4368.74,#708090,monoclinic,"{12,33}",1.801e-09
Georgbokiite,Cu5O2(Se4+O3)2Cl2,"{""Cu"": 5.0, ""O"": 8.0, ""Se"": 2.0, ""Cl"": 2.0}",674.564,#FFFFFF,monoclinic,{45},2.3585e-08
Georgechaoite,KNaZrSi3O9·2H2O,"{""K"": 1.0, ""Na"": 1.0, ""Zr"": 1.0, ""Si"": 3.0, ""O"": 11.0, ""H"": 4.0}",417.588,#FFFFFF,orthorhombic,"{35,36}",4.8138e-08
George-ericksenite,Na6CaMg(IO3)6(CrO4)2·12H2O,"{""Na"": 6.0, ""Ca"": 1.0, ""Mg"": 1.0, ""I"": 6.0, ""O"": 38.0, ""Cr"": 2.0, ""H"": 24.0}",1699.869,#FFFFFF,monoclinic,"{25,57}",2.51701e-07
Georgerobinsonite,Pb4(CrO4)2(OH)2FCl,"{""Pb"": 4.0, ""Cr"": 2.0, ""O"": 10.0, ""H"": 2.0, ""F"": 1.0, ""Cl"": 1.0}",1149.246,#FFFFFF,orthorhombic,{47},7.508e-09
Georgiadesite,Pb4(As3+O3)Cl4(OH),"{""Pb"": 4.0, ""As"": 1.0, ""O"": 4.0, ""Cl"": 4.0, ""H"": 1.0}",1110.526,#FFFFFF,monoclinic,"{47,56}",2.2008e-07
Gerdtremmelite,ZnAl2(AsO4)(OH)5,"{""Zn"": 1.0, ""Al"": 2.0, ""As"": 1.0, ""O"": 9.0, ""H"": 5.0}",343.297,#FFFFFF,triclinic,{47},1.5015e-07
Gerhardtite,Cu2(NO3)(OH)3,"{""Cu"": 2.0, ""N"": 1.0, ""O"": 6.0, ""H"": 3.0}",240.117,#FFFFFF,orthorhombic,"{52,56}",2.08819e-07
Germanite,Cu13Fe2Ge2S16,"{""Cu"": 13.0, ""Fe"": 2.0, ""Ge"": 2.0, ""S"": 16.0}",1596.008,#DAA520,cubic,{33},2.51e-10
Germanocolusite,Cu13VGe3S16,"{""Cu"": 13.0, ""V"": 1.0, ""Ge"": 3.0, ""S"": 16.0}",1607.89,#A9A9A9,cubic,{33},2.51e-10
Gersdorffite,NiAsS,"{""Ni"": 1.0, ""As"": 1.0, ""S"": 1.0}",165.675,#FFD700,cubic,"{33,37}",1.732e-09
Gerstmannite,Mn2+MgZn(SiO4)(OH)2,"{""Mn"": 1.0, ""Mg"": 1.0, ""Zn"": 1.0, ""Si"": 1.0, ""O"": 6.0, ""H"": 2.0}",270.718,#FFFFFF,orthorhombic,{32},1.214e-09
Geschieberite,K2(UO2)(SO4)2·2H2O,"{""K"": 2.0, ""U"": 1.0, ""O"": 12.0, ""S"": 2.0, ""H"": 4.0}",576.366,#FFFFFF,orthorhombic,"{47,55}",3.761e-09
Getchellite,SbAsS3,"{""Sb"": 1.0, ""As"": 1.0, ""S"": 3.0}",292.862,#FFD700,monoclinic,{33},2.51e-10
Geuerite,Ag2Tl4Pb4As22S40,"{""Ag"": 2.0, ""Tl"": 4.0, ""Pb"": 4.0, ""As"": 22.0, ""S"": 40.0}",4792.744,#708090,monoclinic,{},2e-08
Geversite,PtSb2,"{""Pt"": 1.0, ""Sb"": 2.0}",438.6,#A9A9A9,cubic,"{33,37}",8.6621e-08
Ghiaraite,CaCl2·4H2O,"{""Ca"": 1.0, ""Cl"": 2.0, ""H"": 8.0, ""O"": 4.0}",183.038,#FFFFFF,triclinic,{45},2.3585e-08
Giacovazzoite,K5Fe3+3O(SO4)6·10H2O,"{""K"": 5.0, ""Fe"": 3.0, ""O"": 35.0, ""S"": 6.0, ""H"": 20.0}",1135.51,#556B2F,monoclinic,{47},3.003e-09
Gibbsite,Al(OH)3,"{""Al"": 1.0, ""O"": 3.0, ""H"": 3.0}",78.003,#FFFFFF,monoclinic,{48},4.08451e-07
Giftgrubeite,CaMn2Ca2(AsO4)2(AsO3OH)2·4H2O,"{""Ca"": 3.0, ""Mn"": 2.0, ""As"": 4.0, ""O"": 20.0, ""H"": 10.0}",859.858,#FFFFFF,monoclinic,"{47,55}",9.401e-09
Gilalite,Cu5Si6O17·7H2O,"{""Cu"": 5.0, ""Si"": 6.0, ""O"": 24.0, ""H"": 14.0}",884.328,#FFFFFF,monoclinic,"{12,47,56}",2.976e-07
Gillardite,Cu3NiCl2(OH)6,"{""Cu"": 3.0, ""Ni"": 1.0, ""Cl"": 2.0, ""O"": 6.0, ""H"": 6.0}",422.273,#FFFFFF,hexagonal,"{47,50}",1.8678e-07
Gillespite,BaFe2+Si4O10,"{""Ba"": 1.0, ""Fe"": 1.0, ""Si"": 4.0, ""O"": 10.0}",465.505,#556B2F,orthorhombic,{32},2.4272e-08
Gilmarite,Cu2+3(AsO4)(OH)3,"{""Cu"": 3.0, ""As"": 1.0, ""O"": 7.0, ""H"": 3.0}",380.577,#FFFFFF,triclinic,{33},1.2547e-08
Giniite,Fe2+Fe3+4(PO4)4(OH)2·2H2O,"{""Fe"": 5.0, ""P"": 4.0, ""O"": 20.0, ""H"": 6.0}",729.149,#556B2F,monoclinic,{22},4.049e-09
Ginorite,Ca2B14O20(OH)6·5H2O,"{""Ca"": 2.0, ""B"": 14.0, ""O"": 31.0, ""H"": 16.0}",743.593,#FFFFFF,unknown,{47},1.5015e-07
Giorgiosite,Mg5(CO3)4(OH)2·5H2O,"{""Mg"": 5.0, ""C"": 4.0, ""O"": 19.0, ""H"": 12.0}",485.646,#FFFFFF,unknown,"{47,54,55}",2.30764e-07
Giraudite-(Zn),Cu6(Cu4Zn2)As4Se13,"{""Cu"": 10.0, ""Zn"": 2.0, ""As"": 4.0, ""Se"": 13.0}",2092.531,#FFFFFF,cubic,{33},1.2547e-08
Girvasite,NaCa2Mg3(PO4)3(CO3)(H2O)6,"{""Na"": 1.0, ""Ca"": 2.0, ""Mg"": 3.0, ""P"": 3.0, ""O"": 21.0, ""C"": 1.0, ""H"": 12.0}",629.069,#FFFFFF,monoclinic,"{22,31,36}",1.0294e-08
Gismondine-Ca,Ca2(Si4Al4)O16·8H2O,"{""Ca"": 2.0, ""Si"": 4.0, ""Al"": 4.0, ""O"": 24.0, ""H"": 16.0}",700.528,#FFFFFF,monoclinic,{22},5.2632e-08
Gismondine-Sr,Sr4(Si8Al8O32)·9H2O,"{""Sr"": 4.0, ""Si"": 8.0, ""Al"": 8.0, ""O"": 41.0, ""H"": 18.0}",1465.119,#FFFFFF,orthorhombic,{22},4.0486e-08
Gittinsite,CaZrSi2O7,"{""Ca"": 1.0, ""Zr"": 1.0, ""Si"": 2.0, ""O"": 7.0}",299.465,#FFFFFF,monoclinic,{35},1.3774e-08
Giuscaite,Ag2Tl4Pb4As20Sb2S40,"{""Ag"": 2.0, ""Tl"": 4.0, ""Pb"": 4.0, ""As"": 20.0, ""Sb"": 2.0, ""S"": 40.0}",4886.42,#708090,monoclinic,{},2e-08
Giuseppettite,Na42K16Ca6Si48Al48O192(SO4)10Cl2·5H2O,"{""Na"": 42.0, ""K"": 16.0, ""Ca"": 6.0, ""Si"": 48.0, ""Al"": 48.0, ""O"": 237.0, ""S"": 10.0, ""Cl"": 2.0, ""H"": 10.0}",8668.175,#FFFFFF,hexagonal,"{31,35}",8.37e-10
Gladite,CuPbBi5S9,"{""Cu"": 1.0, ""Pb"": 1.0, ""Bi"": 5.0, ""S"": 9.0}",1604.186,#708090,orthorhombic,{33},2.51e-10
Gladiusite,Fe3+2Fe2+4(PO4)(OH)11·H2O,"{""Fe"": 6.0, ""P"": 1.0, ""O"": 16.0, ""H"": 13.0}",635.132,#556B2F,monoclinic,{22},4.049e-09
Gladkovskyite,MnTlAs3S6,"{""Mn"": 1.0, ""Tl"": 1.0, ""As"": 3.0, ""S"": 6.0}",676.444,#FFD700,unknown,"{23,33}",3.5427e-08
Glauberite,Na2Ca(SO4)2,"{""Na"": 2.0, ""Ca"": 1.0, ""S"": 2.0, ""O"": 8.0}",278.17,#FFFFFF,monoclinic,"{25,45}",1.424e-09
Glaucochroite,CaMn2+(SiO4),"{""Ca"": 1.0, ""Mn"": 1.0, ""Si"": 1.0, ""O"": 4.0}",187.097,#FFFFFF,orthorhombic,{32},1.214e-09
Glaukosphaerite,CuNi(CO3)(OH)2,"{""Cu"": 1.0, ""Ni"": 1.0, ""C"": 1.0, ""O"": 5.0, ""H"": 2.0}",216.261,#FFFFFF,monoclinic,{47},1.5015e-07
Glecklerite,Na(C2H3O3),"{""Na"": 1.0, ""C"": 2.0, ""H"": 3.0, ""O"": 3.0}",98.033,#FFFFFF,orthorhombic,{53},8.547e-08
Glikinite,Zn3O(SO4)2,"{""Zn"": 3.0, ""O"": 9.0, ""S"": 2.0}",404.251,#FFFF00,monoclinic,{45},4.72e-10
Glushinskite,Mg(C2O4)·2H2O,"{""Mg"": 1.0, ""C"": 2.0, ""O"": 6.0, ""H"": 4.0}",148.353,#FFFFFF,monoclinic,"{50,53}",1.221e-07
Gmelinite-Ca,Ca2(Si8Al4)O24·11H2O,"{""Ca"": 2.0, ""Si"": 8.0, ""Al"": 4.0, ""O"": 35.0, ""H"": 22.0}",994.905,#FFFFFF,hexagonal,"{16,23,26,32}",2.526612e-06
Gmelinite-K,K4(Si8Al4)O24·11H2O,"{""K"": 4.0, ""Si"": 8.0, ""Al"": 4.0, ""O"": 35.0, ""H"": 22.0}",1071.141,#FFFFFF,hexagonal,"{16,23}",2.630986e-06
Gmelinite-Na,Na4(Si8Al4)O24·11H2O,"{""Na"": 4.0, ""Si"": 8.0, ""Al"": 4.0, ""O"": 35.0, ""H"": 22.0}",1006.709,#FFFFFF,hexagonal,"{16,23}",4.69819e-06
Gobbinsite,Na5(Si11Al5)O32·11H2O,"{""Na"": 5.0, ""Si"": 11.0, ""Al"": 5.0, ""O"": 43.0, ""H"": 22.0}",1268.928,#FFFFFF,orthorhombic,{35},3.4435e-08
Gobelinite,CoCu4(SO4)2(OH)6·6H2O,"{""Co"": 1.0, ""Cu"": 4.0, ""S"": 2.0, ""O"": 20.0, ""H"": 18.0}",715.361,#FFFFFF,monoclinic,{47},3.003e-09
Godovikovite,(NH4)Al(SO4)2,"{""N"": 1.0, ""H"": 4.0, ""Al"": 1.0, ""S"": 2.0, ""O"": 8.0}",237.133,#FFFFFF,hexagonal,"{45,50,54}",2.059e-09
Goedkenite,Sr2Al(PO4)2(OH),"{""Sr"": 2.0, ""Al"": 1.0, ""P"": 2.0, ""O"": 9.0, ""H"": 1.0}",409.169,#FFFFFF,monoclinic,{47},1.5015e-08
Goethite,FeO(OH),"{""Fe"": 1.0, ""O"": 2.0, ""H"": 1.0}",88.851,#8B4513,orthorhombic,"{14,17,24,47,48,49,53,55,57}",2.362543e-06
Gold,Au,"{""Au"": 1.0}",196.97,#FFD700,cubic,"{7,8,12,26,33,36,37,38,49}",6.993881e-06
Goldhillite,Cu5Zn(AsO4)2(OH)6·H2O,"{""Cu"": 5.0, ""Zn"": 1.0, ""As"": 2.0, ""O"": 15.0, ""H"": 8.0}",781.003,#FFFFFF,monoclinic,{47},1.5015e-07
Goldichite,KFe3+(SO4)2·4H2O,"{""K"": 1.0, ""Fe"": 1.0, ""S"": 2.0, ""O"": 12.0, ""H"": 8.0}",359.115,#556B2F,monoclinic,"{45,47,55}",4.232e-09
Goldmanite,Ca3V3+2(SiO4)3,"{""Ca"": 3.0, ""V"": 2.0, ""Si"": 3.0, ""O"": 12.0}",498.361,#FFFFFF,cubic,"{6,31,40}",9.481259e-06
Goldquarryite,CuCd2Al3(PO4)4F3·10H2O,"{""Cu"": 1.0, ""Cd"": 2.0, ""Al"": 3.0, ""P"": 4.0, ""O"": 26.0, ""F"": 3.0, ""H"": 20.0}",986.336,#FFFFFF,triclinic,{47},7.508e-09
Goldschmidtite,KNbO3,"{""K"": 1.0, ""Nb"": 1.0, ""O"": 3.0}",180.001,#FFFFFF,cubic,{36},3.4364e-08
Golyshevite,Na10Ca9Zr3Fe2SiNb(Si3O9)2(Si9O27)2(OH)3(CO3)·H2O,"{""Na"": 10.0, ""Ca"": 9.0, ""Zr"": 3.0, ""Fe"": 2.0, ""Si"": 25.0, ""Nb"": 1.0, ""O"": 79.0, ""H"": 5.0, ""C"": 1.0}",3051.967,#556B2F,hexagonal,{35},1.3774e-08
Gonyerite,Mn2+5Fe3+(Si3Fe3+O10)(OH)8,"{""Mn"": 5.0, ""Fe"": 2.0, ""Si"": 3.0, ""O"": 18.0, ""H"": 8.0}",766.681,#556B2F,orthorhombic,{32},1.214e-09
Goosecreekite,Ca(Si6Al2)O16·5H2O,"{""Ca"": 1.0, ""Si"": 6.0, ""Al"": 2.0, ""O"": 21.0, ""H"": 10.0}",608.611,#FFFFFF,monoclinic,{22},5.2632e-08
Gorceixite,BaAl3(PO4)(PO3OH)(OH)6,"{""Ba"": 1.0, ""Al"": 3.0, ""P"": 2.0, ""O"": 14.0, ""H"": 7.0}",511.266,#FFFFFF,hexagonal,"{32,36,47,48}",3.4963e-08
Gordaite,NaZn4(SO4)(OH)6Cl·6H2O,"{""Na"": 1.0, ""Zn"": 4.0, ""S"": 1.0, ""O"": 16.0, ""H"": 18.0, ""Cl"": 1.0}",626.148,#FFFFFF,hexagonal,{47},3.003e-09
Gordonite,MgAl2(PO4)2(OH)2·8H2O,"{""Mg"": 1.0, ""Al"": 2.0, ""P"": 2.0, ""O"": 18.0, ""H"": 18.0}",446.343,#FFFFFF,triclinic,"{21,31}",1.5467e-08
Gorerite,CaAlFe3+11O19,"{""Ca"": 1.0, ""Al"": 1.0, ""Fe"": 11.0, ""O"": 19.0}",985.336,#556B2F,hexagonal,{51},1.01562e-07
Gorgeyite,K2Ca5(SO4)6·H2O,"{""K"": 2.0, ""Ca"": 5.0, ""S"": 6.0, ""O"": 25.0, ""H"": 2.0}",872.937,#FFFFFF,monoclinic,"{25,50,54}",2.54e-09
Gormanite,Fe2+3Al4(PO4)4(OH)6·2H2O,"{""Fe"": 3.0, ""Al"": 4.0, ""P"": 4.0, ""O"": 24.0, ""H"": 10.0}",793.415,#556B2F,triclinic,"{21,22,31}",1.9516e-08
Gortdrumite,Cu24Fe2Hg9S23,"{""Cu"": 24.0, ""Fe"": 2.0, ""Hg"": 9.0, ""S"": 23.0}",4179.484,#DAA520,orthorhombic,{33},2.51e-10
Goryainovite,Ca2(PO4)Cl,"{""Ca"": 2.0, ""P"": 1.0, ""O"": 4.0, ""Cl"": 1.0}",210.576,#FFFFFF,orthorhombic,{35},1.377e-09
Goslarite,Zn(SO4)·7H2O,"{""Zn"": 1.0, ""S"": 1.0, ""O"": 11.0, ""H"": 14.0}",287.541,#FFFFFF,orthorhombic,"{47,55}",3.761e-09
Gottardiite,Na3Mg3Ca5Al19Si117O272·93H2O,"{""Na"": 3.0, ""Mg"": 3.0, ""Ca"": 5.0, ""Al"": 19.0, ""Si"": 117.0, ""O"": 365.0, ""H"": 186.0}",10168.001,#FFFFFF,orthorhombic,{10},1.21495e-07
Gottlobite,CaMg(VO4)(OH),"{""Ca"": 1.0, ""Mg"": 1.0, ""V"": 1.0, ""O"": 5.0, ""H"": 1.0}",196.328,#FFFFFF,orthorhombic,{47},1.5015e-07
Gotzenite,Ca4NaCa2Ti(Si2O7)2(OF)F2,"{""Ca"": 6.0, ""Na"": 1.0, ""Ti"": 1.0, ""Si"": 4.0, ""O"": 15.0, ""F"": 3.0}",720.644,#FFFFFF,triclinic,{35},6.89e-10
Goudeyite,Cu6Al(AsO4)3(OH)6·3H2O,"{""Cu"": 6.0, ""Al"": 1.0, ""As"": 3.0, ""O"": 21.0, ""H"": 12.0}",981.099,#FFFFFF,hexagonal,{47},1.5015e-07
Gowerite,Ca[B5O8(OH)][B(OH)3]·3H2O,"{""Ca"": 1.0, ""B"": 6.0, ""O"": 15.0, ""H"": 10.0}",355.003,#FFFFFF,monoclinic,{47},1.5015e-07
Goyazite,SrAl3(PO4)(PO3OH)(OH)6,"{""Sr"": 1.0, ""Al"": 3.0, ""P"": 2.0, ""O"": 14.0, ""H"": 7.0}",461.556,#FFFFFF,hexagonal,"{9,23,26,32,34,36,42,47,48}",2.91156e-07
Graemite,Cu2+(Te4+O3)·H2O,"{""Cu"": 1.0, ""Te"": 1.0, ""O"": 4.0, ""H"": 2.0}",257.158,#FFFFFF,orthorhombic,{47},1.5015e-07
Graeserite,Fe3+4Ti3As3+O13(OH),"{""Fe"": 4.0, ""Ti"": 3.0, ""As"": 1.0, ""O"": 14.0, ""H"": 1.0}",666.897,#556B2F,monoclinic,{47},4.5045e-08
Graftonite,Fe2+Fe2+2(PO4)2,"{""Fe"": 3.0, ""P"": 2.0, ""O"": 8.0}",357.475,#8B4513,monoclinic,"{5,34,50,54}",2.0348e-08
Graftonite-(Ca),CaFe2+2(PO4)2,"{""Ca"": 1.0, ""Fe"": 2.0, ""P"": 2.0, ""O"": 8.0}",341.708,#556B2F,monoclinic,{34},1.773e-09
Graftonite-(Mn),MnFe2+2(PO4)2,"{""Mn"": 1.0, ""Fe"": 2.0, ""P"": 2.0, ""O"": 8.0}",356.568,#556B2F,monoclinic,"{5,34}",6.206e-09
Grahampearsonite,Ca2P2O7,"{""Ca"": 2.0, ""P"": 2.0, ""O"": 7.0}",254.097,#FFFFFF,tetragonal,{},1e-07
Grammatikopoulosite,NiVP,"{""Ni"": 1.0, ""V"": 1.0, ""P"": 1.0}",140.609,#7FFF00,orthorhombic,{38},9.259e-09
Grandaite,Sr2Al(AsO4)2(OH),"{""Sr"": 2.0, ""Al"": 1.0, ""As"": 2.0, ""O"": 9.0, ""H"": 1.0}",497.065,#FFFFFF,monoclinic,{46},1.92308e-07
Grandidierite,MgAl3O2(BO3)(SiO4),"{""Mg"": 1.0, ""Al"": 3.0, ""O"": 9.0, ""B"": 1.0, ""Si"": 1.0}",288.137,#FFFFFF,orthorhombic,"{34,40}",9.422119e-06
Grandreefite,Pb2(SO4)F2,"{""Pb"": 2.0, ""S"": 1.0, ""O"": 4.0, ""F"": 2.0}",548.452,#FFFFFF,monoclinic,{47},3.003e-09
Grandviewite,Cu3Al2(SO4)(OH)10·H2O,"{""Cu"": 3.0, ""Al"": 2.0, ""S"": 1.0, ""O"": 15.0, ""H"": 12.0}",528.743,#FFFFFF,triclinic,{47},3.003e-09
Graphite,C,"{""C"": 1.0}",12.011,#FFFFFF,orthorhombic,"{1,4,5,6,7,19,29,33,34,38,40,50,54}",4.6904006e-05
Gratianite,MnBi2S4,"{""Mn"": 1.0, ""Bi"": 2.0, ""S"": 4.0}",601.138,#A9A9A9,monoclinic,{33},2.51e-10
Gratonite,Pb9As4S15,"{""Pb"": 9.0, ""As"": 4.0, ""S"": 15.0}",2645.388,#708090,hexagonal,{12},1.55e-09
Grattarolaite,Fe3+3O3(PO4),"{""Fe"": 3.0, ""O"": 7.0, ""P"": 1.0}",310.502,#8B4513,hexagonal,"{50,54}",7.937e-09
Graulichite-(Ce),CeFe3+3(AsO4)2(OH)6,"{""Ce"": 1.0, ""Fe"": 3.0, ""As"": 2.0, ""O"": 14.0, ""H"": 6.0}",687.533,#556B2F,hexagonal,"{34,47}",1.67881e-07
Graulichite-(La),LaFe3+3(AsO4)2(OH)6,"{""La"": 1.0, ""Fe"": 3.0, ""As"": 2.0, ""O"": 14.0, ""H"": 6.0}",686.323,#556B2F,hexagonal,{47},1.5015e-07
Gravegliaite,Mn2+(S4+O3)·3H2O,"{""Mn"": 1.0, ""S"": 1.0, ""O"": 6.0, ""H"": 6.0}",189.04,#FFFFFF,orthorhombic,"{32,47}",3.488e-09
Greenlizardite,(NH4)Na(UO2)2(SO4)2(OH)2·4H2O,"{""N"": 1.0, ""H"": 14.0, ""Na"": 1.0, ""U"": 2.0, ""O"": 18.0, ""S"": 2.0}",879.271,#FFFFFF,triclinic,"{47,53,55}",5.47e-09
Greenockite,CdS,"{""Cd"": 1.0, ""S"": 1.0}",144.47,#A9A9A9,hexagonal,"{10,11,12,33,50,54}",1.0813e-08
Gregoryite,Na2(CO3),"{""Na"": 2.0, ""C"": 1.0, ""O"": 3.0}",105.988,#FFFFFF,unknown,{36},3.4364e-08
Greifensteinite,Ca2Be4Fe2+5(PO4)6(OH)4·6H2O,"{""Ca"": 2.0, ""Be"": 4.0, ""Fe"": 5.0, ""P"": 6.0, ""O"": 34.0, ""H"": 16.0}",1141.3678,#556B2F,monoclinic,{34},1.773e-09
Greigite,Fe2+Fe3+2S4,"{""Fe"": 3.0, ""S"": 4.0}",295.775,#DAA520,cubic,"{6,25,33,44,49}",2.2958e-08
Grenmarite,Na2Zr2Na2MnZr(Si2O7)2O2F2,"{""Na"": 4.0, ""Zr"": 3.0, ""Mn"": 1.0, ""Si"": 4.0, ""O"": 16.0, ""F"": 2.0}",826.89,#FFFFFF,monoclinic,{35},6.89e-10
Grguricite,CaCr2(CO3)2(OH)4·4H2O,"{""Ca"": 1.0, ""Cr"": 2.0, ""C"": 2.0, ""O"": 14.0, ""H"": 12.0}",404.174,#FFFFFF,triclinic,{47},1.5015e-07
Griceite,LiF,"{""Li"": 1.0, ""F"": 1.0}",25.938,#FFFFFF,cubic,{35},6.89e-10
Griffinite,Al2TiO5,"{""Al"": 2.0, ""Ti"": 1.0, ""O"": 5.0}",181.826,#FFFFFF,orthorhombic,{51},2.3438e-08
Grigorievite,Cu3Fe3+2Al2(VO4)6,"{""Cu"": 3.0, ""Fe"": 2.0, ""Al"": 2.0, ""V"": 6.0, ""O"": 24.0}",1045.92,#556B2F,triclinic,{45},2.3585e-08
Grimaldiite,CrO(OH),"{""Cr"": 1.0, ""O"": 2.0, ""H"": 1.0}",85.002,#228B22,hexagonal,"{33,47}",1.62697e-07
Grimmite,NiCo2S4,"{""Ni"": 1.0, ""Co"": 2.0, ""S"": 4.0}",304.799,#A9A9A9,cubic,{33},2.51e-10
Grimselite,K3Na(UO2)(CO3)3·H2O,"{""K"": 3.0, ""Na"": 1.0, ""U"": 1.0, ""O"": 12.0, ""C"": 3.0, ""H"": 2.0}",608.351,#FFFFFF,hexagonal,{47},1.5015e-07
Grischunite,NaCa2Mn2+5Fe3+(AsO4)6·2H2O,"{""Na"": 1.0, ""Ca"": 2.0, ""Mn"": 5.0, ""Fe"": 1.0, ""As"": 6.0, ""O"": 26.0, ""H"": 4.0}",1303.219,#556B2F,orthorhombic,"{32,46}",1.0829e-08
Grokhovskyite,CuCrS2,"{""Cu"": 1.0, ""Cr"": 1.0, ""S"": 2.0}",179.662,#A9A9A9,hexagonal,{5},2.128e-09
Grootfonteinite,Pb3O(CO3)2,"{""Pb"": 3.0, ""O"": 7.0, ""C"": 2.0}",757.615,#FFFFFF,hexagonal,{47},1.5015e-07
Grossite,CaAl4O7,"{""Ca"": 1.0, ""Al"": 4.0, ""O"": 7.0}",259.999,#FFFFFF,monoclinic,"{3,51}",3.72396e-07
Grossular,Ca3Al2(SiO4)3,"{""Ca"": 3.0, ""Al"": 2.0, ""Si"": 3.0, ""O"": 12.0}",450.441,#FFFFFF,triclinic,"{6,10,31,40,50,54}",1.2550307e-05
Groutite,Mn3+O(OH),"{""Mn"": 1.0, ""O"": 2.0, ""H"": 1.0}",87.944,#FFB6C1,orthorhombic,"{32,47}",8.721e-09
Grumantite,NaSi2O4(OH)·H2O,"{""Na"": 1.0, ""Si"": 2.0, ""O"": 6.0, ""H"": 3.0}",178.178,#FFFFFF,orthorhombic,{35},3.4435e-08
Grumiplucite,HgBi2S4,"{""Hg"": 1.0, ""Bi"": 2.0, ""S"": 4.0}",746.79,#A9A9A9,monoclinic,{33},2.51e-10
Grundmannite,CuBiSe2,"{""Cu"": 1.0, ""Bi"": 1.0, ""Se"": 2.0}",430.468,#00BFFF,orthorhombic,{33},1.2547e-08
Gruzdevite,Cu6Hg3Sb4S12,"{""Cu"": 6.0, ""Hg"": 3.0, ""Sb"": 4.0, ""S"": 12.0}",1854.806,#A9A9A9,hexagonal,{33},2.51e-10
Guanacoite,Cu2Mg3(OH)4(AsO4)2·4H2O,"{""Cu"": 2.0, ""Mg"": 3.0, ""O"": 16.0, ""H"": 12.0, ""As"": 2.0}",617.931,#FFFFFF,monoclinic,{47},1.5015e-07
Guanajuatite,Bi2Se3,"{""Bi"": 2.0, ""Se"": 3.0}",654.873,#D2B48C,orthorhombic,{33},1.2547e-08
Guangyuanite,Pb3Cl3(Se4+O3)(OH),"{""Pb"": 3.0, ""Cl"": 3.0, ""Se"": 1.0, ""O"": 4.0, ""H"": 1.0}",871.925,#FFFFFF,orthorhombic,{},1e-06
Guanine,C5H3(NH2)N4O,"{""C"": 5.0, ""H"": 5.0, ""N"": 5.0, ""O"": 1.0}",151.129,#FFFFFF,monoclinic,{52},1.38889e-07
Guarinoite,Zn6(SO4)(OH)10·5H2O,"{""Zn"": 6.0, ""S"": 1.0, ""O"": 19.0, ""H"": 20.0}",748.481,#FFFFFF,hexagonal,{47},3.003e-09
Guastoniite-(Y),Pb4(YCa)(Si8B4O28)F,"{""Pb"": 4.0, ""Y"": 1.0, ""Ca"": 1.0, ""Si"": 8.0, ""B"": 4.0, ""O"": 28.0, ""F"": 1.0}",1692.674,#FFFFFF,triclinic,{},5e-08
Gudmundite,FeSbS,"{""Fe"": 1.0, ""Sb"": 1.0, ""S"": 1.0}",209.665,#DAA520,monoclinic,{33},2.51e-10
Guettardite,PbSbAsS4,"{""Pb"": 1.0, ""Sb"": 1.0, ""As"": 1.0, ""S"": 4.0}",532.122,#708090,monoclinic,{33},2.51e-10