name,formula,elements,density,color,crystal_system,dna
Mauriziodiniite,(NH4)(As2O3)2I,"{""N"": 1.0, ""H"": 4.0, ""As"": 4.0, ""O"": 6.0, ""I"": 1.0}",540.62,#FFFFFF,hexagonal,"{""system"": ""hexagonal"", ""scale"": [1.0, 1.0, 1.6], ""optical"": {""transparent"": 1, ""refraction"": 1.5, ""birefringence"": 0.01}}"
Maurogemmiite,Ti10Fe3O3,"{""Ti"": 10.0, ""Fe"": 3.0, ""O"": 3.0}",694.25,#8B4513,hexagonal,"{""system"": ""hexagonal"", ""scale"": [1.0, 1.0, 1.6], ""optical"": {""transparent"": 0, ""refraction"": 0.0, ""birefringence"": 0.0}}"
Mawbyite,PbFe3+2(AsO4)2(OH)2,"{""Pb"": 1.0, ""Fe"": 2.0, ""As"": 2.0, ""O"": 10.0, ""H"": 2.0}",630.76,#556B2F,monoclinic,"{""system"": ""monoclinic"", ""scale"": [0.7, 1.0, 1.3], ""optical"": {""transparent"": 0, ""refraction"": 0.0, ""birefringence"": 0.0}}"
Maxwellite,NaFe3+(AsO4)F,"{""Na"": 1.0, ""Fe"": 1.0, ""As"": 1.0, ""O"": 4.0, ""F"": 1.0}",236.76,#556B2F,monoclinic,"{""system"": ""monoclinic"", ""scale"": [0.7, 1.0, 1.3], ""optical"": {""transparent"": 0, ""refraction"": 0.0, ""birefringence"": 0.0}}"
Mayingite,IrBiTe,"{""Ir"": 1.0, ""Bi"": 1.0, ""Te"": 1.0}",528.8,#D2B48C,cubic,"{""system"": ""cubic"", ""scale"": [1.0, 1.0, 1.0], ""optical"": {""transparent"": 0, ""refraction"": 0.0, ""birefringence"": 0.0}}"
Mazorite,Ba3(PO4)2,"{""Ba"": 3.0, ""P"": 2.0, ""O"": 8.0}",601.93,#FFFFFF,hexagonal,"{""system"": ""hexagonal"", ""scale"": [1.0, 1.0, 1.6], ""optical"": {""transparent"": 1, ""refraction"": 1.5, ""birefringence"": 0.01}}"
Mazzettiite,Ag3HgPbSbTe5,"{""Ag"": 3.0, ""Hg"": 1.0, ""Pb"": 1.0, ""Sb"": 1.0, ""Te"": 5.0}",1491.16,#FFFFFF,orthorhombic,"{""system"": ""orthorhombic"", ""scale"": [0.8, 1.0, 1.2], ""optical"": {""transparent"": 1, ""refraction"": 1.5, ""birefringence"": 0.01}}"
Mazzite-Mg,Mg5(Si26Al10)O72·30H2O,"{""Mg"": 5.0, ""Si"": 26.0, ""Al"": 10.0, ""O"": 102.0, ""H"": 60.0}",2814.17,#FFFFFF,hexagonal,"{""system"": ""hexagonal"", ""scale"": [1.0, 1.0, 1.6], ""optical"": {""transparent"": 1, ""refraction"": 1.5, ""birefringence"": 0.01}}"
Mazzite-Na,Na8(Si28Al8)O72·30H2O,"{""Na"": 8.0, ""Si"": 28.0, ""Al"": 8.0, ""O"": 102.0, ""H"": 60.0}",2878.76,#FFFFFF,hexagonal,"{""system"": ""hexagonal"", ""scale"": [1.0, 1.0, 1.6], ""optical"": {""transparent"": 1, ""refraction"": 1.5, ""birefringence"": 0.01}}"
Mcallisterite,Mg2[B6O7(OH)6]2·9H2O,"{""Mg"": 2.0, ""B"": 12.0, ""O"": 35.0, ""H"": 30.0}",768.58,#FFFFFF,hexagonal,"{""system"": ""hexagonal"", ""scale"": [1.0, 1.0, 1.6], ""optical"": {""transparent"": 1, ""refraction"": 1.5, ""birefringence"": 0.01}}"
Mcalpineite,Cu3Te6+O6,"{""Cu"": 3.0, ""Te"": 1.0, ""O"": 6.0}",414.25,#00BFFF,orthorhombic,"{""system"": ""orthorhombic"", ""scale"": [0.8, 1.0, 1.2], ""optical"": {""transparent"": 0, ""refraction"": 0.0, ""birefringence"": 0.0}}"
Mcauslanite,Fe2+3Al2(PO4)3(PO3OH)F·18H2O,"{""Fe"": 3.0, ""Al"": 2.0, ""P"": 4.0, ""O"": 34.0, ""H"": 37.0, ""F"": 1.0}",945.69,#556B2F,triclinic,"{""system"": ""triclinic"", ""scale"": [0.7, 1.0, 1.3], ""optical"": {""transparent"": 0, ""refraction"": 0.0, ""birefringence"": 0.0}}"
Mcbirneyite,Cu3(VO4)2,"{""Cu"": 3.0, ""V"": 2.0, ""O"": 8.0}",420.53,#00BFFF,triclinic,"{""system"": ""triclinic"", ""scale"": [0.7, 1.0, 1.3], ""optical"": {""transparent"": 0, ""refraction"": 0.0, ""birefringence"": 0.0}}"
Mcconnellite,Cu1+CrO2,"{""Cu"": 1.0, ""Cr"": 1.0, ""O"": 2.0}",147.55,#00BFFF,hexagonal,"{""system"": ""hexagonal"", ""scale"": [1.0, 1.0, 1.6], ""optical"": {""transparent"": 0, ""refraction"": 0.0, ""birefringence"": 0.0}}"
Mcguinnessite,CuMg(CO3)(OH)2,"{""Cu"": 1.0, ""Mg"": 1.0, ""C"": 1.0, ""O"": 5.0, ""H"": 2.0}",181.89,#FFFFFF,monoclinic,"{""system"": ""monoclinic"", ""scale"": [0.7, 1.0, 1.3], ""optical"": {""transparent"": 1, ""refraction"": 1.5, ""birefringence"": 0.01}}"
Mckelveyite-(Nd),NaCaBa3Nd(CO3)6·3H2O,"{""Na"": 1.0, ""Ca"": 1.0, ""Ba"": 3.0, ""Nd"": 1.0, ""C"": 6.0, ""O"": 21.0, ""H"": 6.0}",1033.41,#FFFFFF,monoclinic,"{""system"": ""monoclinic"", ""scale"": [0.7, 1.0, 1.3], ""optical"": {""transparent"": 1, ""refraction"": 1.5, ""birefringence"": 0.01}}"
Mckelveyite-(Y),NaBa3CaY(CO3)6·3H2O,"{""Na"": 1.0, ""Ba"": 3.0, ""Ca"": 1.0, ""Y"": 1.0, ""C"": 6.0, ""O"": 21.0, ""H"": 6.0}",978.08,#FFFFFF,monoclinic,"{""system"": ""monoclinic"", ""scale"": [0.7, 1.0, 1.3], ""optical"": {""transparent"": 1, ""refraction"": 1.5, ""birefringence"": 0.01}}"
Mckinstryite,Ag5Cu3S4,"{""Ag"": 5.0, ""Cu"": 3.0, ""S"": 4.0}",858.24,#A9A9A9,orthorhombic,"{""system"": ""orthorhombic"", ""scale"": [0.8, 1.0, 1.2], ""optical"": {""transparent"": 0, ""refraction"": 0.0, ""birefringence"": 0.0}}"
Mcnearite,NaCa5(AsO4)(AsO3OH)4·4H2O,"{""Na"": 1.0, ""Ca"": 5.0, ""As"": 5.0, ""O"": 24.0, ""H"": 12.0}",994.09,#FFFFFF,triclinic,"{""system"": ""triclinic"", ""scale"": [0.7, 1.0, 1.3], ""optical"": {""transparent"": 1, ""refraction"": 1.5, ""birefringence"": 0.01}}"
Medenbachite,Bi2Fe3+Cu2+(AsO4)2O(OH)3,"{""Bi"": 2.0, ""Fe"": 1.0, ""Cu"": 1.0, ""As"": 2.0, ""O"": 12.0, ""H"": 3.0}",882.22,#556B2F,triclinic,"{""system"": ""triclinic"", ""scale"": [0.7, 1.0, 1.3], ""optical"": {""transparent"": 0, ""refraction"": 0.0, ""birefringence"": 0.0}}"
Megacyclite,KNa8Si9O18(OH)9·19H2O,"{""K"": 1.0, ""Na"": 8.0, ""Si"": 9.0, ""O"": 46.0, ""H"": 47.0}",1259.21,#FFFFFF,monoclinic,"{""system"": ""monoclinic"", ""scale"": [0.7, 1.0, 1.3], ""optical"": {""transparent"": 1, ""refraction"": 1.5, ""birefringence"": 0.01}}"
Megakalsilite,KAlSiO4,"{""K"": 1.0, ""Al"": 1.0, ""Si"": 1.0, ""O"": 4.0}",158.17,#FFFFFF,hexagonal,"{""system"": ""hexagonal"", ""scale"": [1.0, 1.0, 1.6], ""optical"": {""transparent"": 1, ""refraction"": 1.5, ""birefringence"": 0.01}}"
Meieranite,Na2Sr3MgSi6O17,"{""Na"": 2.0, ""Sr"": 3.0, ""Mg"": 1.0, ""Si"": 6.0, ""O"": 17.0}",773.69,#FFFFFF,orthorhombic,"{""system"": ""orthorhombic"", ""scale"": [0.8, 1.0, 1.2], ""optical"": {""transparent"": 1, ""refraction"": 1.5, ""birefringence"": 0.01}}"
Meierite,Ba44Si66Al30O192Cl25(OH)33,"{""Ba"": 44.0, ""Si"": 66.0, ""Al"": 30.0, ""O"": 225.0, ""Cl"": 25.0, ""H"": 33.0}",13225.37,#FFFFFF,cubic,"{""system"": ""cubic"", ""scale"": [1.0, 1.0, 1.0], ""optical"": {""transparent"": 1, ""refraction"": 1.5, ""birefringence"": 0.0}}"
Meifuite,KFe6(Si7Al)O19(OH)4Cl2,"{""K"": 1.0, ""Fe"": 6.0, ""Si"": 7.0, ""Al"": 1.0, ""O"": 23.0, ""H"": 4.0, ""Cl"": 2.0}",1040.74,#556B2F,triclinic,"{""system"": ""triclinic"", ""scale"": [0.7, 1.0, 1.3], ""optical"": {""transparent"": 0, ""refraction"": 0.0, ""birefringence"": 0.0}}"
Meionite,Ca4Al6Si6O24(CO3),"{""Ca"": 4.0, ""Al"": 6.0, ""Si"": 6.0, ""O"": 27.0, ""C"": 1.0}",934.75,#FFFFFF,tetragonal,"{""system"": ""tetragonal"", ""scale"": [1.0, 1.0, 1.4], ""optical"": {""transparent"": 1, ""refraction"": 1.5, ""birefringence"": 0.01}}"
Meisserite,Na5(UO2)(SO4)3(SO3OH)(H2O),"{""Na"": 5.0, ""U"": 1.0, ""O"": 19.0, ""S"": 4.0, ""H"": 3.0}",788.24,#FFFFFF,triclinic,"{""system"": ""triclinic"", ""scale"": [0.7, 1.0, 1.3], ""optical"": {""transparent"": 1, ""refraction"": 1.5, ""birefringence"": 0.01}}"
Meitnerite,(NH4)(UO2)(SO4)(OH)·2H2O,"{""N"": 1.0, ""H"": 9.0, ""U"": 1.0, ""O"": 9.0, ""S"": 1.0}",437.17,#FFFFFF,triclinic,"{""system"": ""triclinic"", ""scale"": [0.7, 1.0, 1.3], ""optical"": {""transparent"": 1, ""refraction"": 1.5, ""birefringence"": 0.01}}"
Meixnerite,Mg6Al2(OH)16(OH)2·4H2O,"{""Mg"": 6.0, ""Al"": 2.0, ""O"": 22.0, ""H"": 26.0}",578.03,#FFFFFF,hexagonal,"{""system"": ""hexagonal"", ""scale"": [1.0, 1.0, 1.6], ""optical"": {""transparent"": 1, ""refraction"": 1.5, ""birefringence"": 0.01}}"
Meizhouite,Fe2+V3+2(PO4)2(OH)2,"{""Fe"": 1.0, ""V"": 2.0, ""P"": 2.0, ""O"": 10.0, ""H"": 2.0}",381.69,#556B2F,monoclinic,"{""system"": ""monoclinic"", ""scale"": [0.7, 1.0, 1.3], ""optical"": {""transparent"": 0, ""refraction"": 0.0, ""birefringence"": 0.0}}"
Mejillonesite,NaMg2(PO3OH)(PO4)(OH)·H5O2,"{""Na"": 1.0, ""Mg"": 2.0, ""P"": 2.0, ""O"": 11.0, ""H"": 7.0}",316.61,#FFFFFF,orthorhombic,"{""system"": ""orthorhombic"", ""scale"": [0.8, 1.0, 1.2], ""optical"": {""transparent"": 1, ""refraction"": 1.5, ""birefringence"": 0.01}}"
Melanarsite,K3Cu7Fe3+O4(AsO4)4,"{""K"": 3.0, ""Cu"": 7.0, ""Fe"": 1.0, ""O"": 20.0, ""As"": 4.0}",1237.68,#556B2F,monoclinic,"{""system"": ""monoclinic"", ""scale"": [0.7, 1.0, 1.3], ""optical"": {""transparent"": 0, ""refraction"": 0.0, ""birefringence"": 0.0}}"
Melanophlogite,C2H17O5·Si46O92,"{""C"": 2.0, ""H"": 17.0, ""O"": 97.0, ""Si"": 46.0}",2885.3,#FFFFFF,tetragonal,"{""system"": ""tetragonal"", ""scale"": [1.0, 1.0, 1.4], ""optical"": {""transparent"": 1, ""refraction"": 1.5, ""birefringence"": 0.01}}"
Melanotekite,Pb2Fe3+2O2(Si2O7),"{""Pb"": 2.0, ""Fe"": 2.0, ""O"": 9.0, ""Si"": 2.0}",726.28,#556B2F,orthorhombic,"{""system"": ""orthorhombic"", ""scale"": [0.8, 1.0, 1.2], ""optical"": {""transparent"": 0, ""refraction"": 0.0, ""birefringence"": 0.0}}"
Melanothallite,Cu2OCl2,"{""Cu"": 2.0, ""O"": 1.0, ""Cl"": 2.0}",214.0,#00BFFF,orthorhombic,"{""system"": ""orthorhombic"", ""scale"": [0.8, 1.0, 1.2], ""optical"": {""transparent"": 0, ""refraction"": 0.0, ""birefringence"": 0.0}}"
Melanterite,Fe(SO4)·7H2O,"{""Fe"": 1.0, ""S"": 1.0, ""O"": 11.0, ""H"": 14.0}",278.02,#556B2F,monoclinic,"{""system"": ""monoclinic"", ""scale"": [0.7, 1.0, 1.3], ""optical"": {""transparent"": 0, ""refraction"": 0.0, ""birefringence"": 0.0}}"
Melcherite,Ba2Na2Mg[Nb6O19]·6H2O,"{""Ba"": 2.0, ""Na"": 2.0, ""Mg"": 1.0, ""Nb"": 6.0, ""O"": 25.0, ""H"": 12.0}",1314.51,#FFFFFF,hexagonal,"{""system"": ""hexagonal"", ""scale"": [1.0, 1.0, 1.6], ""optical"": {""transparent"": 1, ""refraction"": 1.5, ""birefringence"": 0.01}}"
Melkovite,CaFe3+2Mo5O10(PO4)2(OH)12·8H2O,"{""Ca"": 1.0, ""Fe"": 2.0, ""Mo"": 5.0, ""O"": 38.0, ""P"": 2.0, ""H"": 28.0}",1329.69,#556B2F,monoclinic,"{""system"": ""monoclinic"", ""scale"": [0.7, 1.0, 1.3], ""optical"": {""transparent"": 0, ""refraction"": 0.0, ""birefringence"": 0.0}}"
Mellite,Al2C6(COO)6·16H2O,"{""Al"": 2.0, ""C"": 12.0, ""O"": 28.0, ""H"": 32.0}",678.34,#FFFFFF,tetragonal,"{""system"": ""tetragonal"", ""scale"": [1.0, 1.0, 1.4], ""optical"": {""transparent"": 1, ""refraction"": 1.5, ""birefringence"": 0.01}}"
Melonite,NiTe2,"{""Ni"": 1.0, ""Te"": 2.0}",313.89,#7FFF00,hexagonal,"{""system"": ""hexagonal"", ""scale"": [1.0, 1.0, 1.6], ""optical"": {""transparent"": 0, ""refraction"": 0.0, ""birefringence"": 0.0}}"
Melonjosephite,CaFe2+Fe3+(PO4)2(OH),"{""Ca"": 1.0, ""Fe"": 2.0, ""P"": 2.0, ""O"": 9.0, ""H"": 1.0}",358.73,#556B2F,orthorhombic,"{""system"": ""orthorhombic"", ""scale"": [0.8, 1.0, 1.2], ""optical"": {""transparent"": 0, ""refraction"": 0.0, ""birefringence"": 0.0}}"
Mendipite,Pb3O2Cl2,"{""Pb"": 3.0, ""O"": 2.0, ""Cl"": 2.0}",724.5,#FFFFFF,orthorhombic,"{""system"": ""orthorhombic"", ""scale"": [0.8, 1.0, 1.2], ""optical"": {""transparent"": 1, ""refraction"": 1.5, ""birefringence"": 0.01}}"
Mendozavilite-KCa,[K2(H2O)15Ca(H2O)6][Mo8P2Fe3+3O34(OH)3],"{""K"": 2.0, ""H"": 45.0, ""O"": 58.0, ""Ca"": 1.0, ""Mo"": 8.0, ""P"": 2.0, ""Fe"": 3.0}",2088.73,#556B2F,monoclinic,"{""system"": ""monoclinic"", ""scale"": [0.7, 1.0, 1.3], ""optical"": {""transparent"": 0, ""refraction"": 0.0, ""birefringence"": 0.0}}"
Mendozavilite-NaCu,[Na2(H2O)15Cu(H2O)6][Mo8P2Fe3+3O34(OH)3],"{""Na"": 2.0, ""H"": 45.0, ""O"": 58.0, ""Cu"": 1.0, ""Mo"": 8.0, ""P"": 2.0, ""Fe"": 3.0}",2079.98,#556B2F,monoclinic,"{""system"": ""monoclinic"", ""scale"": [0.7, 1.0, 1.3], ""optical"": {""transparent"": 0, ""refraction"": 0.0, ""birefringence"": 0.0}}"
Mendozavilite-NaFe,[Na2(H2O)15Fe3+(H2O)6][Mo8P2Fe3+3O35(OH)2],"{""Na"": 2.0, ""H"": 44.0, ""O"": 58.0, ""Fe"": 4.0, ""Mo"": 8.0, ""P"": 2.0}",2071.27,#556B2F,monoclinic,"{""system"": ""monoclinic"", ""scale"": [0.7, 1.0, 1.3], ""optical"": {""transparent"": 0, ""refraction"": 0.0, ""birefringence"": 0.0}}"
Mendozite,NaAl(SO4)2·11H2O,"{""Na"": 1.0, ""Al"": 1.0, ""S"": 2.0, ""O"": 19.0, ""H"": 22.0}",440.27,#FFFFFF,monoclinic,"{""system"": ""monoclinic"", ""scale"": [0.7, 1.0, 1.3], ""optical"": {""transparent"": 1, ""refraction"": 1.5, ""birefringence"": 0.01}}"
Meneghinite,Pb13CuSb7S24,"{""Pb"": 13.0, ""Cu"": 1.0, ""Sb"": 7.0, ""S"": 24.0}",4378.91,#708090,orthorhombic,"{""system"": ""orthorhombic"", ""scale"": [0.8, 1.0, 1.2], ""optical"": {""transparent"": 0, ""refraction"": 0.0, ""birefringence"": 0.0}}"
Menezesite,Ba3MgZr4Nb12O42·12H2O,"{""Ba"": 3.0, ""Mg"": 1.0, ""Zr"": 4.0, ""Nb"": 12.0, ""O"": 54.0, ""H"": 24.0}",2804.29,#FFFFFF,cubic,"{""system"": ""cubic"", ""scale"": [1.0, 1.0, 1.0], ""optical"": {""transparent"": 1, ""refraction"": 1.5, ""birefringence"": 0.0}}"
Meniaylovite,Ca4AlSi(SO4)F13·12H2O,"{""Ca"": 4.0, ""Al"": 1.0, ""Si"": 1.0, ""S"": 1.0, ""O"": 16.0, ""F"": 13.0, ""H"": 24.0}",774.64,#FFFFFF,cubic,"{""system"": ""cubic"", ""scale"": [1.0, 1.0, 1.0], ""optical"": {""transparent"": 1, ""refraction"": 1.5, ""birefringence"": 0.0}}"
Menshikovite,Pd3Ni2As3,"{""Pd"": 3.0, ""Ni"": 2.0, ""As"": 3.0}",661.4,#7FFF00,hexagonal,"{""system"": ""hexagonal"", ""scale"": [1.0, 1.0, 1.6], ""optical"": {""transparent"": 0, ""refraction"": 0.0, ""birefringence"": 0.0}}"
Menzerite-(Y),(CaY2)Mg2(SiO4)3,"{""Ca"": 1.0, ""Y"": 2.0, ""Mg"": 2.0, ""Si"": 3.0, ""O"": 12.0}",542.79,#FFFFFF,cubic,"{""system"": ""cubic"", ""scale"": [1.0, 1.0, 1.0], ""optical"": {""transparent"": 1, ""refraction"": 1.5, ""birefringence"": 0.0}}"
Mercallite,KH(SO4),"{""K"": 1.0, ""H"": 1.0, ""S"": 1.0, ""O"": 4.0}",136.17,#FFFFFF,orthorhombic,"{""system"": ""orthorhombic"", ""scale"": [0.8, 1.0, 1.2], ""optical"": {""transparent"": 1, ""refraction"": 1.5, ""birefringence"": 0.01}}"
Mercury,Hg,"{""Hg"": 1.0}",200.59,#FFFFFF,,"{""system"": """", ""scale"": [1.0, 1.0, 1.0], ""optical"": {""transparent"": 1, ""refraction"": 1.5, ""birefringence"": 0.01}}"
Mereheadite,Pb47O24(OH)13Cl25(BO3)2(CO3),"{""Pb"": 47.0, ""O"": 46.0, ""H"": 13.0, ""Cl"": 25.0, ""B"": 2.0, ""C"": 1.0}",11407.38,#FFFFFF,monoclinic,"{""system"": ""monoclinic"", ""scale"": [0.7, 1.0, 1.3], ""optical"": {""transparent"": 1, ""refraction"": 1.5, ""birefringence"": 0.01}}"
Mereiterite,K2Fe2+(SO4)2·4H2O,"{""K"": 2.0, ""Fe"": 1.0, ""S"": 2.0, ""O"": 12.0, ""H"": 8.0}",398.23,#556B2F,monoclinic,"{""system"": ""monoclinic"", ""scale"": [0.7, 1.0, 1.3], ""optical"": {""transparent"": 0, ""refraction"": 0.0, ""birefringence"": 0.0}}"
Merelaniite,Pb4Mo4VSbS15,"{""Pb"": 4.0, ""Mo"": 4.0, ""V"": 1.0, ""Sb"": 1.0, ""S"": 15.0}",1866.2,#708090,triclinic,"{""system"": ""triclinic"", ""scale"": [0.7, 1.0, 1.3], ""optical"": {""transparent"": 0, ""refraction"": 0.0, ""birefringence"": 0.0}}"
Merenskyite,PdTe2,"{""Pd"": 1.0, ""Te"": 2.0}",361.62,#FFFFFF,hexagonal,"{""system"": ""hexagonal"", ""scale"": [1.0, 1.0, 1.6], ""optical"": {""transparent"": 1, ""refraction"": 1.5, ""birefringence"": 0.01}}"
Meridianiite,Mg(SO4)·11H2O,"{""Mg"": 1.0, ""S"": 1.0, ""O"": 15.0, ""H"": 22.0}",318.55,#FFFFFF,,"{""system"": """", ""scale"": [1.0, 1.0, 1.0], ""optical"": {""transparent"": 1, ""refraction"": 1.5, ""birefringence"": 0.01}}"
Merlinoite,K5Ca2(Si23Al9)O64·24H2O,"{""K"": 5.0, ""Ca"": 2.0, ""Si"": 23.0, ""Al"": 9.0, ""O"": 88.0, ""H"": 48.0}",2620.93,#FFFFFF,orthorhombic,"{""system"": ""orthorhombic"", ""scale"": [0.8, 1.0, 1.2], ""optical"": {""transparent"": 1, ""refraction"": 1.5, ""birefringence"": 0.01}}"
Merrillite,Ca9NaMg(PO4)7,"{""Ca"": 9.0, ""Na"": 1.0, ""Mg"": 1.0, ""P"": 7.0, ""O"": 28.0}",1072.81,#FFFFFF,hexagonal,"{""system"": ""hexagonal"", ""scale"": [1.0, 1.0, 1.6], ""optical"": {""transparent"": 1, ""refraction"": 1.5, ""birefringence"": 0.01}}"
Merwinite,Ca3Mg(SiO4)2,"{""Ca"": 3.0, ""Mg"": 1.0, ""Si"": 2.0, ""O"": 8.0}",328.73,#FFFFFF,monoclinic,"{""system"": ""monoclinic"", ""scale"": [0.7, 1.0, 1.3], ""optical"": {""transparent"": 1, ""refraction"": 1.5, ""birefringence"": 0.01}}"
Mesolite,Na2Ca2(Si9Al6)O30·8H2O,"{""Na"": 2.0, ""Ca"": 2.0, ""Si"": 9.0, ""Al"": 6.0, ""O"": 38.0, ""H"": 16.0}",1164.96,#FFFFFF,orthorhombic,"{""system"": ""orthorhombic"", ""scale"": [0.8, 1.0, 1.2], ""optical"": {""transparent"": 1, ""refraction"": 1.5, ""birefringence"": 0.01}}"
Messelite,Ca2Fe2+(PO4)2·2H2O,"{""Ca"": 2.0, ""Fe"": 1.0, ""P"": 2.0, ""O"": 10.0, ""H"": 4.0}",361.98,#556B2F,triclinic,"{""system"": ""triclinic"", ""scale"": [0.7, 1.0, 1.3], ""optical"": {""transparent"": 0, ""refraction"": 0.0, ""birefringence"": 0.0}}"
Meta-aluminite,Al2(SO4)(OH)4·5H2O,"{""Al"": 2.0, ""S"": 1.0, ""O"": 13.0, ""H"": 14.0}",308.13,#FFFFFF,,"{""system"": """", ""scale"": [1.0, 1.0, 1.0], ""optical"": {""transparent"": 1, ""refraction"": 1.5, ""birefringence"": 0.01}}"
Meta-alunogen,Al2(SO4)3·14H2O,"{""Al"": 2.0, ""S"": 3.0, ""O"": 26.0, ""H"": 28.0}",594.36,#FFFFFF,,"{""system"": """", ""scale"": [1.0, 1.0, 1.0], ""optical"": {""transparent"": 1, ""refraction"": 1.5, ""birefringence"": 0.01}}"
Meta-ankoleite,K(UO2)(PO4)·3H2O,"{""K"": 1.0, ""U"": 1.0, ""O"": 9.0, ""P"": 1.0, ""H"": 6.0}",458.15,#FFFFFF,tetragonal,"{""system"": ""tetragonal"", ""scale"": [1.0, 1.0, 1.4], ""optical"": {""transparent"": 1, ""refraction"": 1.5, ""birefringence"": 0.01}}"
Meta-autunite,Ca(UO2)2(PO4)2·6H2O,"{""Ca"": 1.0, ""U"": 2.0, ""O"": 18.0, ""P"": 2.0, ""H"": 12.0}",878.18,#FFFFFF,tetragonal,"{""system"": ""tetragonal"", ""scale"": [1.0, 1.0, 1.4], ""optical"": {""transparent"": 1, ""refraction"": 1.5, ""birefringence"": 0.01}}"
Metaborite,HBO2,"{""H"": 1.0, ""B"": 1.0, ""O"": 2.0}",43.82,#FFFFFF,cubic,"{""system"": ""cubic"", ""scale"": [1.0, 1.0, 1.0], ""optical"": {""transparent"": 1, ""refraction"": 1.5, ""birefringence"": 0.0}}"
Metacinnabar,HgS,"{""Hg"": 1.0, ""S"": 1.0}",232.65,#A9A9A9,cubic,"{""system"": ""cubic"", ""scale"": [1.0, 1.0, 1.0], ""optical"": {""transparent"": 0, ""refraction"": 0.0, ""birefringence"": 0.0}}"
Metadelrioite,SrCa(VO3)2(OH)2,"{""Sr"": 1.0, ""Ca"": 1.0, ""V"": 2.0, ""O"": 8.0, ""H"": 2.0}",359.6,#FFFFFF,triclinic,"{""system"": ""triclinic"", ""scale"": [0.7, 1.0, 1.3], ""optical"": {""transparent"": 1, ""refraction"": 1.5, ""birefringence"": 0.01}}"
Metaheimite,PbCu2(AsO4)(OH)3,"{""Pb"": 1.0, ""Cu"": 2.0, ""As"": 1.0, ""O"": 7.0, ""H"": 3.0}",524.24,#FFFFFF,monoclinic,"{""system"": ""monoclinic"", ""scale"": [0.7, 1.0, 1.3], ""optical"": {""transparent"": 1, ""refraction"": 1.5, ""birefringence"": 0.01}}"
Metaheinrichite,Ba(UO2)2(AsO4)2·8H2O,"{""Ba"": 1.0, ""U"": 2.0, ""O"": 20.0, ""As"": 2.0, ""H"": 16.0}",1099.36,#FFFFFF,monoclinic,"{""system"": ""monoclinic"", ""scale"": [0.7, 1.0, 1.3], ""optical"": {""transparent"": 1, ""refraction"": 1.5, ""birefringence"": 0.01}}"
Metahewettite,CaV5+6O16·3H2O,"{""Ca"": 1.0, ""V"": 6.0, ""O"": 19.0, ""H"": 6.0}",655.77,#FFFFFF,monoclinic,"{""system"": ""monoclinic"", ""scale"": [0.7, 1.0, 1.3], ""optical"": {""transparent"": 1, ""refraction"": 1.5, ""birefringence"": 0.01}}"
Metahohmannite,Fe3+2O(SO4)2·4H2O,"{""Fe"": 2.0, ""O"": 13.0, ""S"": 2.0, ""H"": 8.0}",391.88,#556B2F,triclinic,"{""system"": ""triclinic"", ""scale"": [0.7, 1.0, 1.3], ""optical"": {""transparent"": 0, ""refraction"": 0.0, ""birefringence"": 0.0}}"
Metakahlerite,Fe2+(UO2)2(AsO4)2·8H2O,"{""Fe"": 1.0, ""U"": 2.0, ""O"": 20.0, ""As"": 2.0, ""H"": 16.0}",1017.88,#556B2F,triclinic,"{""system"": ""triclinic"", ""scale"": [0.7, 1.0, 1.3], ""optical"": {""transparent"": 0, ""refraction"": 0.0, ""birefringence"": 0.0}}"
Metakirchheimerite,Co(UO2)2(AsO4)2·8H2O,"{""Co"": 1.0, ""U"": 2.0, ""O"": 20.0, ""As"": 2.0, ""H"": 16.0}",1020.96,#FFFFFF,triclinic,"{""system"": ""triclinic"", ""scale"": [0.7, 1.0, 1.3], ""optical"": {""transparent"": 1, ""refraction"": 1.5, ""birefringence"": 0.01}}"
Metamunirite,NaV5+O3,"{""Na"": 1.0, ""V"": 1.0, ""O"": 3.0}",121.93,#FFFFFF,orthorhombic,"{""system"": ""orthorhombic"", ""scale"": [0.8, 1.0, 1.2], ""optical"": {""transparent"": 1, ""refraction"": 1.5, ""birefringence"": 0.01}}"