name,formula,elements,density,color,crystal_system,dna
Hylbrownite,Na3MgP3O10·12H2O,"{""Na"": 3.0, ""Mg"": 1.0, ""P"": 3.0, ""O"": 22.0, ""H"": 24.0}",562.38,#FFFFFF,monoclinic,"{""system"": ""monoclinic"", ""scale"": [0.7, 1.0, 1.3], ""optical"": {""transparent"": 1, ""refraction"": 1.5, ""birefringence"": 0.01}}"
Hypercinnabar,HgS,"{""Hg"": 1.0, ""S"": 1.0}",232.65,#A9A9A9,hexagonal,"{""system"": ""hexagonal"", ""scale"": [1.0, 1.0, 1.6], ""optical"": {""transparent"": 0, ""refraction"": 0.0, ""birefringence"": 0.0}}"
Hyrslite,Pb8As10Sb6S32,"{""Pb"": 8.0, ""As"": 10.0, ""Sb"": 6.0, ""S"": 32.0}",4163.28,#708090,monoclinic,"{""system"": ""monoclinic"", ""scale"": [0.7, 1.0, 1.3], ""optical"": {""transparent"": 0, ""refraction"": 0.0, ""birefringence"": 0.0}}"
Ianthinite,U4+2(UO2)4O6(OH)4·9H2O,"{""U"": 6.0, ""O"": 27.0, ""H"": 22.0}",1882.36,#ADFF2F,orthorhombic,"{""system"": ""orthorhombic"", ""scale"": [0.8, 1.0, 1.2], ""optical"": {""transparent"": 0, ""refraction"": 0.0, ""birefringence"": 0.0}}"
Ice,H2O,"{""H"": 2.0, ""O"": 1.0}",18.02,#FFFFFF,,"{""system"": """", ""scale"": [1.0, 1.0, 1.0], ""optical"": {""transparent"": 1, ""refraction"": 1.5, ""birefringence"": 0.01}}"
Ichnusaite,Th(MoO4)2·3H2O,"{""Th"": 1.0, ""Mo"": 2.0, ""O"": 11.0, ""H"": 6.0}",605.99,#FFFFFF,monoclinic,"{""system"": ""monoclinic"", ""scale"": [0.7, 1.0, 1.3], ""optical"": {""transparent"": 1, ""refraction"": 1.5, ""birefringence"": 0.01}}"
Icosahedrite,Al63Cu24Fe13,"{""Al"": 63.0, ""Cu"": 24.0, ""Fe"": 13.0}",3950.99,#00BFFF,,"{""system"": """", ""scale"": [1.0, 1.0, 1.0], ""optical"": {""transparent"": 0, ""refraction"": 0.0, ""birefringence"": 0.0}}"
Idaite,Cu3FeS4,"{""Cu"": 3.0, ""Fe"": 1.0, ""S"": 4.0}",374.74,#DAA520,tetragonal,"{""system"": ""tetragonal"", ""scale"": [1.0, 1.0, 1.4], ""optical"": {""transparent"": 0, ""refraction"": 0.0, ""birefringence"": 0.0}}"
Idrialite,C22H14,"{""C"": 22.0, ""H"": 14.0}",278.33,#FFFFFF,orthorhombic,"{""system"": ""orthorhombic"", ""scale"": [0.8, 1.0, 1.2], ""optical"": {""transparent"": 1, ""refraction"": 1.5, ""birefringence"": 0.01}}"
Igelstromite,Fe3+(SbPb)O4,"{""Fe"": 1.0, ""Sb"": 1.0, ""Pb"": 1.0, ""O"": 4.0}",448.81,#556B2F,tetragonal,"{""system"": ""tetragonal"", ""scale"": [1.0, 1.0, 1.4], ""optical"": {""transparent"": 0, ""refraction"": 0.0, ""birefringence"": 0.0}}"
Iimoriite-(Y),Y2(SiO4)(CO3),"{""Y"": 2.0, ""Si"": 1.0, ""O"": 7.0, ""C"": 1.0}",329.92,#FFFFFF,triclinic,"{""system"": ""triclinic"", ""scale"": [0.7, 1.0, 1.3], ""optical"": {""transparent"": 1, ""refraction"": 1.5, ""birefringence"": 0.01}}"
Ikaite,Ca(CO3)·6H2O,"{""Ca"": 1.0, ""C"": 1.0, ""O"": 9.0, ""H"": 12.0}",208.19,#FFFFFF,monoclinic,"{""system"": ""monoclinic"", ""scale"": [0.7, 1.0, 1.3], ""optical"": {""transparent"": 1, ""refraction"": 1.5, ""birefringence"": 0.01}}"
Ikunolite,Bi4S3,"{""Bi"": 4.0, ""S"": 3.0}",932.1,#A9A9A9,hexagonal,"{""system"": ""hexagonal"", ""scale"": [1.0, 1.0, 1.6], ""optical"": {""transparent"": 0, ""refraction"": 0.0, ""birefringence"": 0.0}}"
Ilinskite,NaCu5O2(Se4+O3)2Cl3,"{""Na"": 1.0, ""Cu"": 5.0, ""O"": 8.0, ""Se"": 2.0, ""Cl"": 3.0}",733.01,#FFFFFF,orthorhombic,"{""system"": ""orthorhombic"", ""scale"": [0.8, 1.0, 1.2], ""optical"": {""transparent"": 1, ""refraction"": 1.5, ""birefringence"": 0.01}}"
Ilmenite,Fe2+Ti4+O3,"{""Fe"": 1.0, ""Ti"": 1.0, ""O"": 3.0}",151.72,#8B4513,hexagonal,"{""system"": ""hexagonal"", ""scale"": [1.0, 1.0, 1.6], ""optical"": {""transparent"": 0, ""refraction"": 0.0, ""birefringence"": 0.0}}"
Iltisite,HgAgSCl,"{""Hg"": 1.0, ""Ag"": 1.0, ""S"": 1.0, ""Cl"": 1.0}",375.97,#A9A9A9,hexagonal,"{""system"": ""hexagonal"", ""scale"": [1.0, 1.0, 1.6], ""optical"": {""transparent"": 0, ""refraction"": 0.0, ""birefringence"": 0.0}}"
Ilvaite,CaFe3+Fe2+2O(Si2O7)(OH),"{""Ca"": 1.0, ""Fe"": 3.0, ""O"": 9.0, ""Si"": 2.0, ""H"": 1.0}",408.82,#556B2F,monoclinic,"{""system"": ""monoclinic"", ""scale"": [0.7, 1.0, 1.3], ""optical"": {""transparent"": 0, ""refraction"": 0.0, ""birefringence"": 0.0}}"
Imandrite,Na12Ca3Fe3+2Si12O36,"{""Na"": 12.0, ""Ca"": 3.0, ""Fe"": 2.0, ""Si"": 12.0, ""O"": 36.0}",1420.9,#556B2F,orthorhombic,"{""system"": ""orthorhombic"", ""scale"": [0.8, 1.0, 1.2], ""optical"": {""transparent"": 0, ""refraction"": 0.0, ""birefringence"": 0.0}}"
Imayoshiite,Ca3Al(CO3)[B(OH)4](OH)6·12H2O,"{""Ca"": 3.0, ""Al"": 1.0, ""C"": 1.0, ""O"": 25.0, ""B"": 1.0, ""H"": 34.0}",604.31,#FFFFFF,hexagonal,"{""system"": ""hexagonal"", ""scale"": [1.0, 1.0, 1.6], ""optical"": {""transparent"": 1, ""refraction"": 1.5, ""birefringence"": 0.01}}"
Imiterite,Ag2HgS2,"{""Ag"": 2.0, ""Hg"": 1.0, ""S"": 2.0}",480.45,#A9A9A9,monoclinic,"{""system"": ""monoclinic"", ""scale"": [0.7, 1.0, 1.3], ""optical"": {""transparent"": 0, ""refraction"": 0.0, ""birefringence"": 0.0}}"
Imogolite,Al2SiO3(OH)4,"{""Al"": 2.0, ""Si"": 1.0, ""O"": 7.0, ""H"": 4.0}",198.08,#FFFFFF,,"{""system"": """", ""scale"": [1.0, 1.0, 1.0], ""optical"": {""transparent"": 1, ""refraction"": 1.5, ""birefringence"": 0.01}}"
Inaglyite,PbCu3Ir8S16,"{""Pb"": 1.0, ""Cu"": 3.0, ""Ir"": 8.0, ""S"": 16.0}",2448.57,#708090,hexagonal,"{""system"": ""hexagonal"", ""scale"": [1.0, 1.0, 1.6], ""optical"": {""transparent"": 0, ""refraction"": 0.0, ""birefringence"": 0.0}}"
Incomsartorite,Tl6Pb144As246S516,"{""Tl"": 6.0, ""Pb"": 144.0, ""As"": 246.0, ""S"": 516.0}",66036.36,#708090,monoclinic,"{""system"": ""monoclinic"", ""scale"": [0.7, 1.0, 1.3], ""optical"": {""transparent"": 0, ""refraction"": 0.0, ""birefringence"": 0.0}}"
Inderborite,CaMg[B3O3(OH)5]2(H2O)4·2H2O,"{""Ca"": 1.0, ""Mg"": 1.0, ""B"": 6.0, ""O"": 22.0, ""H"": 22.0}",503.43,#FFFFFF,monoclinic,"{""system"": ""monoclinic"", ""scale"": [0.7, 1.0, 1.3], ""optical"": {""transparent"": 1, ""refraction"": 1.5, ""birefringence"": 0.01}}"
Inderite,Mg[B3O3(OH)5](H2O)4·H2O,"{""Mg"": 1.0, ""B"": 3.0, ""O"": 13.0, ""H"": 15.0}",279.86,#FFFFFF,monoclinic,"{""system"": ""monoclinic"", ""scale"": [0.7, 1.0, 1.3], ""optical"": {""transparent"": 1, ""refraction"": 1.5, ""birefringence"": 0.01}}"
Indialite,Mg2Al3(AlSi5)O18,"{""Mg"": 2.0, ""Al"": 4.0, ""Si"": 5.0, ""O"": 18.0}",584.99,#FFFFFF,hexagonal,"{""system"": ""hexagonal"", ""scale"": [1.0, 1.0, 1.6], ""optical"": {""transparent"": 1, ""refraction"": 1.5, ""birefringence"": 0.01}}"
Indigirite,Mg2Al2(CO3)4(OH)2·15H2O,"{""Mg"": 2.0, ""Al"": 2.0, ""C"": 4.0, ""O"": 29.0, ""H"": 32.0}",646.88,#FFFFFF,,"{""system"": """", ""scale"": [1.0, 1.0, 1.0], ""optical"": {""transparent"": 1, ""refraction"": 1.5, ""birefringence"": 0.01}}"
Ingodite,Bi2TeS,"{""Bi"": 2.0, ""Te"": 1.0, ""S"": 1.0}",577.62,#A9A9A9,hexagonal,"{""system"": ""hexagonal"", ""scale"": [1.0, 1.0, 1.6], ""optical"": {""transparent"": 0, ""refraction"": 0.0, ""birefringence"": 0.0}}"
Insizwaite,PtBi2,"{""Pt"": 1.0, ""Bi"": 2.0}",613.04,#D2B48C,cubic,"{""system"": ""cubic"", ""scale"": [1.0, 1.0, 1.0], ""optical"": {""transparent"": 0, ""refraction"": 0.0, ""birefringence"": 0.0}}"
Interliveingite,AgPb18As25S56,"{""Ag"": 1.0, ""Pb"": 18.0, ""As"": 25.0, ""S"": 56.0}",7505.83,#708090,monoclinic,"{""system"": ""monoclinic"", ""scale"": [0.7, 1.0, 1.3], ""optical"": {""transparent"": 0, ""refraction"": 0.0, ""birefringence"": 0.0}}"
Inyoite,CaB3O3(OH)5·4H2O,"{""Ca"": 1.0, ""B"": 3.0, ""O"": 12.0, ""H"": 13.0}",277.61,#FFFFFF,monoclinic,"{""system"": ""monoclinic"", ""scale"": [0.7, 1.0, 1.3], ""optical"": {""transparent"": 1, ""refraction"": 1.5, ""birefringence"": 0.01}}"
Iodargyrite,AgI,"{""Ag"": 1.0, ""I"": 1.0}",234.77,#C0C0C0,hexagonal,"{""system"": ""hexagonal"", ""scale"": [1.0, 1.0, 1.6], ""optical"": {""transparent"": 0, ""refraction"": 0.0, ""birefringence"": 0.0}}"
Iowaite,Mg6Fe3+2(OH)16Cl2·4H2O,"{""Mg"": 6.0, ""Fe"": 2.0, ""O"": 20.0, ""H"": 24.0, ""Cl"": 2.0}",672.65,#556B2F,hexagonal,"{""system"": ""hexagonal"", ""scale"": [1.0, 1.0, 1.6], ""optical"": {""transparent"": 0, ""refraction"": 0.0, ""birefringence"": 0.0}}"
Iquiqueite,K3Na4Mg(CrO4)B24O39(OH)·12H2O,"{""K"": 3.0, ""Na"": 4.0, ""Mg"": 1.0, ""Cr"": 1.0, ""O"": 56.0, ""B"": 24.0, ""H"": 25.0}",1466.21,#FFFFFF,hexagonal,"{""system"": ""hexagonal"", ""scale"": [1.0, 1.0, 1.6], ""optical"": {""transparent"": 1, ""refraction"": 1.5, ""birefringence"": 0.01}}"
Iranite,CuPb10(CrO4)6(SiO4)2(OH)2,"{""Cu"": 1.0, ""Pb"": 10.0, ""Cr"": 6.0, ""O"": 34.0, ""Si"": 2.0, ""H"": 2.0}",3049.75,#FFFFFF,triclinic,"{""system"": ""triclinic"", ""scale"": [0.7, 1.0, 1.3], ""optical"": {""transparent"": 1, ""refraction"": 1.5, ""birefringence"": 0.01}}"
Irarsite,IrAsS,"{""Ir"": 1.0, ""As"": 1.0, ""S"": 1.0}",299.2,#FFD700,cubic,"{""system"": ""cubic"", ""scale"": [1.0, 1.0, 1.0], ""optical"": {""transparent"": 0, ""refraction"": 0.0, ""birefringence"": 0.0}}"
Irhtemite,Ca4Mg(AsO4)2(AsO3OH)2·4H2O,"{""Ca"": 4.0, ""Mg"": 1.0, ""As"": 4.0, ""O"": 20.0, ""H"": 10.0}",814.39,#FFFFFF,monoclinic,"{""system"": ""monoclinic"", ""scale"": [0.7, 1.0, 1.3], ""optical"": {""transparent"": 1, ""refraction"": 1.5, ""birefringence"": 0.01}}"
Iridarsenite,IrAs2,"{""Ir"": 1.0, ""As"": 2.0}",342.06,#808080,monoclinic,"{""system"": ""monoclinic"", ""scale"": [0.7, 1.0, 1.3], ""optical"": {""transparent"": 0, ""refraction"": 0.0, ""birefringence"": 0.0}}"
Iridium,Ir,"{""Ir"": 1.0}",192.22,#FFFFFF,cubic,"{""system"": ""cubic"", ""scale"": [1.0, 1.0, 1.0], ""optical"": {""transparent"": 1, ""refraction"": 1.5, ""birefringence"": 0.0}}"
Iriginite,(UO2)Mo6+2O7·3H2O,"{""U"": 1.0, ""O"": 12.0, ""Mo"": 2.0, ""H"": 6.0}",627.98,#FFFFFF,orthorhombic,"{""system"": ""orthorhombic"", ""scale"": [0.8, 1.0, 1.2], ""optical"": {""transparent"": 1, ""refraction"": 1.5, ""birefringence"": 0.01}}"
Iron,Fe,"{""Fe"": 1.0}",55.85,#8B4513,cubic,"{""system"": ""cubic"", ""scale"": [1.0, 1.0, 1.0], ""optical"": {""transparent"": 0, ""refraction"": 0.0, ""birefringence"": 0.0}}"
Irtyshite,Na2Ta4O11,"{""Na"": 2.0, ""Ta"": 4.0, ""O"": 11.0}",945.78,#FFFFFF,hexagonal,"{""system"": ""hexagonal"", ""scale"": [1.0, 1.0, 1.6], ""optical"": {""transparent"": 1, ""refraction"": 1.5, ""birefringence"": 0.01}}"
Iskandarovite,Sb6O7(SO4)2,"{""Sb"": 6.0, ""O"": 15.0, ""S"": 2.0}",1034.68,#FFFF00,orthorhombic,"{""system"": ""orthorhombic"", ""scale"": [0.8, 1.0, 1.2], ""optical"": {""transparent"": 0, ""refraction"": 0.0, ""birefringence"": 0.0}}"
Isoclasite,Ca2(PO4)(OH)·2H2O,"{""Ca"": 2.0, ""P"": 1.0, ""O"": 7.0, ""H"": 5.0}",228.17,#FFFFFF,,"{""system"": """", ""scale"": [1.0, 1.0, 1.0], ""optical"": {""transparent"": 1, ""refraction"": 1.5, ""birefringence"": 0.01}}"
Isocubanite,CuFe2S3,"{""Cu"": 1.0, ""Fe"": 2.0, ""S"": 3.0}",271.43,#DAA520,cubic,"{""system"": ""cubic"", ""scale"": [1.0, 1.0, 1.0], ""optical"": {""transparent"": 0, ""refraction"": 0.0, ""birefringence"": 0.0}}"
Isoferroplatinum,Pt3Fe,"{""Pt"": 3.0, ""Fe"": 1.0}",641.09,#8B4513,cubic,"{""system"": ""cubic"", ""scale"": [1.0, 1.0, 1.0], ""optical"": {""transparent"": 0, ""refraction"": 0.0, ""birefringence"": 0.0}}"
Isokite,CaMg(PO4)F,"{""Ca"": 1.0, ""Mg"": 1.0, ""P"": 1.0, ""O"": 4.0, ""F"": 1.0}",178.36,#FFFFFF,monoclinic,"{""system"": ""monoclinic"", ""scale"": [0.7, 1.0, 1.3], ""optical"": {""transparent"": 1, ""refraction"": 1.5, ""birefringence"": 0.01}}"
Isolueshite,NaNbO3,"{""Na"": 1.0, ""Nb"": 1.0, ""O"": 3.0}",163.9,#FFFFFF,cubic,"{""system"": ""cubic"", ""scale"": [1.0, 1.0, 1.0], ""optical"": {""transparent"": 1, ""refraction"": 1.5, ""birefringence"": 0.0}}"
Isomertieite,Pd11Sb2As2,"{""Pd"": 11.0, ""Sb"": 2.0, ""As"": 2.0}",1563.98,#808080,cubic,"{""system"": ""cubic"", ""scale"": [1.0, 1.0, 1.0], ""optical"": {""transparent"": 0, ""refraction"": 0.0, ""birefringence"": 0.0}}"
Isselite,Cu6(SO4)(OH)10(H2O)4·H2O,"{""Cu"": 6.0, ""S"": 1.0, ""O"": 19.0, ""H"": 20.0}",737.52,#FFFFFF,orthorhombic,"{""system"": ""orthorhombic"", ""scale"": [0.8, 1.0, 1.2], ""optical"": {""transparent"": 1, ""refraction"": 1.5, ""birefringence"": 0.01}}"
Itelmenite,Na2CuMg2(SO4)4,"{""Na"": 2.0, ""Cu"": 1.0, ""Mg"": 2.0, ""S"": 4.0, ""O"": 16.0}",542.39,#FFFFFF,orthorhombic,"{""system"": ""orthorhombic"", ""scale"": [0.8, 1.0, 1.2], ""optical"": {""transparent"": 1, ""refraction"": 1.5, ""birefringence"": 0.01}}"
Itoigawaite,SrAl2Si2O7(OH)2·H2O,"{""Sr"": 1.0, ""Al"": 2.0, ""Si"": 2.0, ""O"": 10.0, ""H"": 4.0}",361.79,#FFFFFF,monoclinic,"{""system"": ""monoclinic"", ""scale"": [0.7, 1.0, 1.3], ""optical"": {""transparent"": 1, ""refraction"": 1.5, ""birefringence"": 0.01}}"
Itoite,Pb3GeO2(SO4)2(OH)2,"{""Pb"": 3.0, ""Ge"": 1.0, ""O"": 12.0, ""S"": 2.0, ""H"": 2.0}",952.37,#FFFFFF,orthorhombic,"{""system"": ""orthorhombic"", ""scale"": [0.8, 1.0, 1.2], ""optical"": {""transparent"": 1, ""refraction"": 1.5, ""birefringence"": 0.01}}"
Itsiite,Ba2Ca(BSi2O7)2,"{""Ba"": 2.0, ""Ca"": 1.0, ""B"": 2.0, ""Si"": 4.0, ""O"": 14.0}",672.72,#FFFFFF,tetragonal,"{""system"": ""tetragonal"", ""scale"": [1.0, 1.0, 1.4], ""optical"": {""transparent"": 1, ""refraction"": 1.5, ""birefringence"": 0.01}}"
Ivanyukite-Cu,Cu[Ti4O2(OH)2(SiO4)3]·7H2O,"{""Cu"": 1.0, ""Ti"": 4.0, ""O"": 23.0, ""H"": 16.0, ""Si"": 3.0}",723.43,#FFFFFF,cubic,"{""system"": ""cubic"", ""scale"": [1.0, 1.0, 1.0], ""optical"": {""transparent"": 1, ""refraction"": 1.5, ""birefringence"": 0.0}}"
Ivanyukite-K,K2[Ti4O2(OH)2(SiO4)3]·9H2O,"{""K"": 2.0, ""Ti"": 4.0, ""O"": 25.0, ""H"": 20.0, ""Si"": 3.0}",774.11,#FFFFFF,cubic,"{""system"": ""cubic"", ""scale"": [1.0, 1.0, 1.0], ""optical"": {""transparent"": 1, ""refraction"": 1.5, ""birefringence"": 0.0}}"
Ivanyukite-Na,Na2[Ti4O2(OH)2(SiO4)3]·6H2O,"{""Na"": 2.0, ""Ti"": 4.0, ""O"": 22.0, ""H"": 14.0, ""Si"": 3.0}",687.84,#FFFFFF,hexagonal,"{""system"": ""hexagonal"", ""scale"": [1.0, 1.0, 1.6], ""optical"": {""transparent"": 1, ""refraction"": 1.5, ""birefringence"": 0.01}}"
Ivsite,Na3H(SO4)2,"{""Na"": 3.0, ""H"": 1.0, ""S"": 2.0, ""O"": 8.0}",262.1,#FFFFFF,monoclinic,"{""system"": ""monoclinic"", ""scale"": [0.7, 1.0, 1.3], ""optical"": {""transparent"": 1, ""refraction"": 1.5, ""birefringence"": 0.01}}"
Iwashiroite-(Y),YTaO4,"{""Y"": 1.0, ""Ta"": 1.0, ""O"": 4.0}",333.86,#FFFFFF,monoclinic,"{""system"": ""monoclinic"", ""scale"": [0.7, 1.0, 1.3], ""optical"": {""transparent"": 1, ""refraction"": 1.5, ""birefringence"": 0.01}}"
Ixiolite-(Fe2+),(Ta2/3Fe2+1/3)O2,"{""Ta"": 2.0, ""Fe"": 1.0, ""O"": 2.0}",449.75,#8B4513,orthorhombic,"{""system"": ""orthorhombic"", ""scale"": [0.8, 1.0, 1.2], ""optical"": {""transparent"": 0, ""refraction"": 0.0, ""birefringence"": 0.0}}"
Jachymovite,(UO2)8(SO4)(OH)14·13H2O,"{""U"": 8.0, ""O"": 47.0, ""S"": 1.0, ""H"": 40.0}",2728.62,#FFFFFF,monoclinic,"{""system"": ""monoclinic"", ""scale"": [0.7, 1.0, 1.3], ""optical"": {""transparent"": 1, ""refraction"": 1.5, ""birefringence"": 0.01}}"
Jacquesdietrichite,Cu2BO(OH)5,"{""Cu"": 2.0, ""B"": 1.0, ""O"": 6.0, ""H"": 5.0}",238.95,#FFFFFF,orthorhombic,"{""system"": ""orthorhombic"", ""scale"": [0.8, 1.0, 1.2], ""optical"": {""transparent"": 1, ""refraction"": 1.5, ""birefringence"": 0.01}}"
Jacutingaite,Pt2HgSe3,"{""Pt"": 2.0, ""Hg"": 1.0, ""Se"": 3.0}",827.63,#FFFFFF,hexagonal,"{""system"": ""hexagonal"", ""scale"": [1.0, 1.0, 1.6], ""optical"": {""transparent"": 1, ""refraction"": 1.5, ""birefringence"": 0.01}}"
Jadarite,LiNaB3SiO7(OH),"{""Li"": 1.0, ""Na"": 1.0, ""B"": 3.0, ""Si"": 1.0, ""O"": 8.0, ""H"": 1.0}",219.46,#FFFFFF,monoclinic,"{""system"": ""monoclinic"", ""scale"": [0.7, 1.0, 1.3], ""optical"": {""transparent"": 1, ""refraction"": 1.5, ""birefringence"": 0.01}}"
Jadeite,NaAlSi2O6,"{""Na"": 1.0, ""Al"": 1.0, ""Si"": 2.0, ""O"": 6.0}",202.15,#FFFFFF,monoclinic,"{""system"": ""monoclinic"", ""scale"": [0.7, 1.0, 1.3], ""optical"": {""transparent"": 1, ""refraction"": 1.5, ""birefringence"": 0.01}}"
Jaffeite,Ca6Si2O7(OH)6,"{""Ca"": 6.0, ""Si"": 2.0, ""O"": 13.0, ""H"": 6.0}",510.71,#FFFFFF,hexagonal,"{""system"": ""hexagonal"", ""scale"": [1.0, 1.0, 1.6], ""optical"": {""transparent"": 1, ""refraction"": 1.5, ""birefringence"": 0.01}}"
Jagowerite,BaAl2(PO4)2(OH)2,"{""Ba"": 1.0, ""Al"": 2.0, ""P"": 2.0, ""O"": 10.0, ""H"": 2.0}",415.25,#FFFFFF,triclinic,"{""system"": ""triclinic"", ""scale"": [0.7, 1.0, 1.3], ""optical"": {""transparent"": 1, ""refraction"": 1.5, ""birefringence"": 0.01}}"
Jagueite,Cu2Pd3Se4,"{""Cu"": 2.0, ""Pd"": 3.0, ""Se"": 4.0}",762.2,#00BFFF,monoclinic,"{""system"": ""monoclinic"", ""scale"": [0.7, 1.0, 1.3], ""optical"": {""transparent"": 0, ""refraction"": 0.0, ""birefringence"": 0.0}}"
Jahnsite-(CaFeMg),CaFe2+Mg2Fe3+2(PO4)4(OH)2·8H2O,"{""Ca"": 1.0, ""Fe"": 3.0, ""Mg"": 2.0, ""P"": 4.0, ""O"": 26.0, ""H"": 18.0}",814.27,#556B2F,monoclinic,"{""system"": ""monoclinic"", ""scale"": [0.7, 1.0, 1.3], ""optical"": {""transparent"": 0, ""refraction"": 0.0, ""birefringence"": 0.0}}"
Jahnsite-(NaFeMg),NaFe3+Mg2Fe3+2(PO4)4(OH)2·8H2O,"{""Na"": 1.0, ""Fe"": 3.0, ""Mg"": 2.0, ""P"": 4.0, ""O"": 26.0, ""H"": 18.0}",797.18,#556B2F,monoclinic,"{""system"": ""monoclinic"", ""scale"": [0.7, 1.0, 1.3], ""optical"": {""transparent"": 0, ""refraction"": 0.0, ""birefringence"": 0.0}}"
Jaipurite,CoS,"{""Co"": 1.0, ""S"": 1.0}",90.99,#A9A9A9,hexagonal,"{""system"": ""hexagonal"", ""scale"": [1.0, 1.0, 1.6], ""optical"": {""transparent"": 0, ""refraction"": 0.0, ""birefringence"": 0.0}}"
Jakobssonite,CaAlF5,"{""Ca"": 1.0, ""Al"": 1.0, ""F"": 5.0}",162.06,#FFFFFF,monoclinic,"{""system"": ""monoclinic"", ""scale"": [0.7, 1.0, 1.3], ""optical"": {""transparent"": 1, ""refraction"": 1.5, ""birefringence"": 0.01}}"
Jalpaite,Ag3CuS2,"{""Ag"": 3.0, ""Cu"": 1.0, ""S"": 2.0}",451.28,#A9A9A9,tetragonal,"{""system"": ""tetragonal"", ""scale"": [1.0, 1.0, 1.4], ""optical"": {""transparent"": 0, ""refraction"": 0.0, ""birefringence"": 0.0}}"
Jamesonite,Pb4FeSb6S14,"{""Pb"": 4.0, ""Fe"": 1.0, ""Sb"": 6.0, ""S"": 14.0}",2064.05,#DAA520,monoclinic,"{""system"": ""monoclinic"", ""scale"": [0.7, 1.0, 1.3], ""optical"": {""transparent"": 0, ""refraction"": 0.0, ""birefringence"": 0.0}}"
Jarandolite,CaB3O4(OH)3,"{""Ca"": 1.0, ""B"": 3.0, ""O"": 7.0, ""H"": 3.0}",187.53,#FFFFFF,monoclinic,"{""system"": ""monoclinic"", ""scale"": [0.7, 1.0, 1.3], ""optical"": {""transparent"": 1, ""refraction"": 1.5, ""birefringence"": 0.01}}"
Jarosite,KFe3+3(SO4)2(OH)6,"{""K"": 1.0, ""Fe"": 3.0, ""S"": 2.0, ""O"": 14.0, ""H"": 6.0}",500.82,#556B2F,hexagonal,"{""system"": ""hexagonal"", ""scale"": [1.0, 1.0, 1.6], ""optical"": {""transparent"": 0, ""refraction"": 0.0, ""birefringence"": 0.0}}"
Jasmundite,Ca11O2(SiO4)4S,"{""Ca"": 11.0, ""O"": 18.0, ""Si"": 4.0, ""S"": 1.0}",873.3,#FFFFFF,tetragonal,"{""system"": ""tetragonal"", ""scale"": [1.0, 1.0, 1.4], ""optical"": {""transparent"": 1, ""refraction"": 1.5, ""birefringence"": 0.01}}"
Jasrouxite,Ag16Pb4(Sb25As15)Σ40S72,"{""Ag"": 16.0, ""Pb"": 4.0, ""Sb"": 1000.0, ""As"": 600.0, ""S"": 72.0}",171575.04,#708090,triclinic,"{""system"": ""triclinic"", ""scale"": [0.7, 1.0, 1.3], ""optical"": {""transparent"": 0, ""refraction"": 0.0, ""birefringence"": 0.0}}"
Jaszczakite,[Bi3S3][AuS2],"{""Bi"": 3.0, ""S"": 5.0, ""Au"": 1.0}",984.21,#A9A9A9,orthorhombic,"{""system"": ""orthorhombic"", ""scale"": [0.8, 1.0, 1.2], ""optical"": {""transparent"": 0, ""refraction"": 0.0, ""birefringence"": 0.0}}"
Javorieite,KFeCl3,"{""K"": 1.0, ""Fe"": 1.0, ""Cl"": 3.0}",201.3,#8B4513,orthorhombic,"{""system"": ""orthorhombic"", ""scale"": [0.8, 1.0, 1.2], ""optical"": {""transparent"": 0, ""refraction"": 0.0, ""birefringence"": 0.0}}"
Jeankempite,Ca5(AsO4)2(AsO3OH)2(H2O)7,"{""Ca"": 5.0, ""As"": 4.0, ""O"": 23.0, ""H"": 16.0}",884.21,#FFFFFF,triclinic,"{""system"": ""triclinic"", ""scale"": [0.7, 1.0, 1.3], ""optical"": {""transparent"": 1, ""refraction"": 1.5, ""birefringence"": 0.01}}"
Jedwabite,Fe7Ta3,"{""Fe"": 7.0, ""Ta"": 3.0}",933.8,#8B4513,hexagonal,"{""system"": ""hexagonal"", ""scale"": [1.0, 1.0, 1.6], ""optical"": {""transparent"": 0, ""refraction"": 0.0, ""birefringence"": 0.0}}"