name,formula,elements,density,color,crystal
Pfaffenbergite,KNa3(Al4Si12)O32,"{""K"": 1.0, ""Na"": 3.0, ""Al"": 4.0, ""Si"": 12.0, ""O"": 32.0}",1064.984,#FFFFFF,hexagonal
Pharmacolite,Ca(AsO3OH)·2H2O,"{""Ca"": 1.0, ""As"": 1.0, ""O"": 6.0, ""H"": 5.0}",216.034,#FFFFFF,monoclinic
Pharmacosiderite,KFe3+4(AsO4)3(OH)4·6-7H2O,"{""K"": 1.0, ""Fe"": 4.0, ""As"": 3.0, ""O"": 23.0, ""H"": 18.0}",873.365,#556B2F,cubic
Phaunouxite,Ca3(AsO4)2·11H2O,"{""Ca"": 3.0, ""As"": 2.0, ""O"": 19.0, ""H"": 22.0}",596.235,#FFFFFF,triclinic
Phenakite,Be2(SiO4),"{""Be"": 2.0, ""Si"": 1.0, ""O"": 4.0}",110.1054,#FFFFFF,hexagonal
Philipsbornite,PbAl3(AsO4)(AsO3OH)(OH)6,"{""Pb"": 1.0, ""Al"": 3.0, ""As"": 2.0, ""O"": 14.0, ""H"": 7.0}",669.032,#FFFFFF,hexagonal
Phillipsite-Ca,Ca3(Si10Al6)O32·12H2O,"{""Ca"": 3.0, ""Si"": 10.0, ""Al"": 6.0, ""O"": 44.0, ""H"": 24.0}",1291.124,#FFFFFF,orthorhombic
Phillipsite-K,K6(Si10Al6)O32·12H2O,"{""K"": 6.0, ""Si"": 10.0, ""Al"": 6.0, ""O"": 44.0, ""H"": 24.0}",1405.478,#FFFFFF,orthorhombic
Phillipsite-Na,Na6(Si10Al6)O32·12H2O,"{""Na"": 6.0, ""Si"": 10.0, ""Al"": 6.0, ""O"": 44.0, ""H"": 24.0}",1308.83,#FFFFFF,orthorhombic
Philrothite,TlAs3S5,"{""Tl"": 1.0, ""As"": 3.0, ""S"": 5.0}",589.446,#FFD700,monoclinic
Phlogopite,KMg3(AlSi3O10)(OH)2,"{""K"": 1.0, ""Mg"": 3.0, ""Al"": 1.0, ""Si"": 3.0, ""O"": 12.0, ""H"": 2.0}",417.254,#FFFFFF,hexagonal
Phoenicochroite,Pb2O(CrO4),"{""Pb"": 2.0, ""O"": 5.0, ""Cr"": 1.0}",546.391,#228B22,monoclinic
Phosgenite,Pb2(CO3)Cl2,"{""Pb"": 2.0, ""C"": 1.0, ""O"": 3.0, ""Cl"": 2.0}",545.308,#FFFFFF,tetragonal
Phosinaite-(Ce),Na13Ca2Ce(SiO3)4(PO4)4,"{""Na"": 13.0, ""Ca"": 2.0, ""Ce"": 1.0, ""Si"": 4.0, ""O"": 28.0, ""P"": 4.0}",1203.354,#FFFFFF,orthorhombic
Phosphammite,(NH4)2(PO3OH),"{""N"": 2.0, ""H"": 9.0, ""P"": 1.0, ""O"": 4.0}",132.056,#FFFFFF,monoclinic
Phosphocyclite-(Fe),Fe2+2(P4O12),"{""Fe"": 2.0, ""P"": 4.0, ""O"": 12.0}",427.574,#8B4513,monoclinic
Phosphocyclite-(Ni),Ni2(P4O12),"{""Ni"": 2.0, ""P"": 4.0, ""O"": 12.0}",433.27,#7FFF00,monoclinic
Phosphoferrite,Fe2+3(PO4)2·3H2O,"{""Fe"": 3.0, ""P"": 2.0, ""O"": 11.0, ""H"": 6.0}",411.52,#556B2F,orthorhombic
Phosphohedyphane,Ca2Pb3(PO4)3Cl,"{""Ca"": 2.0, ""Pb"": 3.0, ""P"": 3.0, ""O"": 12.0, ""Cl"": 1.0}",1022.116,#FFFFFF,hexagonal
Phosphoinnelite,Na3Ba4Ti3Si4O14(PO4)2O2F,"{""Na"": 3.0, ""Ba"": 4.0, ""Ti"": 3.0, ""Si"": 4.0, ""O"": 24.0, ""P"": 2.0, ""F"": 1.0}",1339.153,#FFFFFF,triclinic
Phosphorrosslerite,Mg(PO3OH)·7H2O,"{""Mg"": 1.0, ""P"": 1.0, ""O"": 11.0, ""H"": 15.0}",246.388,#FFFFFF,
Phosphosiderite,Fe3+(PO4)·2H2O,"{""Fe"": 1.0, ""P"": 1.0, ""O"": 6.0, ""H"": 4.0}",186.845,#556B2F,monoclinic
Phosphovanadylite-Ba,Ba[V4+4P2O12(OH)4]·12H2O,"{""Ba"": 1.0, ""V"": 4.0, ""P"": 2.0, ""O"": 28.0, ""H"": 28.0}",879.242,#FFFFFF,cubic
Phosphovanadylite-Ca,Ca[V4+4P2O12(OH)4]·12H2O,"{""Ca"": 1.0, ""V"": 4.0, ""P"": 2.0, ""O"": 28.0, ""H"": 28.0}",781.99,#FFFFFF,cubic
Phosphowalpurgite,(UO2)Bi4O4(PO4)2·2H2O,"{""U"": 1.0, ""O"": 16.0, ""Bi"": 4.0, ""P"": 2.0, ""H"": 4.0}",1395.914,#FFFFFF,triclinic
Phosphuranylite,KCa(H3O)3(UO2)7(PO4)4O4·8H2O,"{""K"": 1.0, ""Ca"": 1.0, ""H"": 25.0, ""O"": 45.0, ""U"": 7.0, ""P"": 4.0}",2614.437,#FFFFFF,orthorhombic
Phoxite,(NH4)2Mg2(C2O4)(PO3OH)2(H2O)4,"{""N"": 2.0, ""H"": 18.0, ""Mg"": 2.0, ""C"": 2.0, ""O"": 16.0, ""P"": 2.0}",436.722,#FFFFFF,monoclinic
Phuralumite,Al2[(UO2)3(PO4)2O(OH)](OH)3(H2O)9,"{""Al"": 2.0, ""U"": 3.0, ""O"": 28.0, ""P"": 2.0, ""H"": 22.0}",1300.15,#FFFFFF,monoclinic
Phurcalite,Ca2(UO2)3O2(PO4)2·7H2O,"{""Ca"": 2.0, ""U"": 3.0, ""O"": 23.0, ""P"": 2.0, ""H"": 14.0}",1238.283,#FFFFFF,orthorhombic
Phylloretine,C18H18,"{""C"": 18.0, ""H"": 18.0}",234.342,#FFFFFF,
Phyllotungstite,HCaFe3+3(WO4)6·10H2O,"{""H"": 21.0, ""Ca"": 1.0, ""Fe"": 3.0, ""W"": 6.0, ""O"": 34.0}",1875.787,#556B2F,orthorhombic
Picaite,NaCa[AsO3OH][AsO2(OH)2],"{""Na"": 1.0, ""Ca"": 1.0, ""As"": 2.0, ""O"": 8.0, ""H"": 3.0}",343.928,#FFFFFF,monoclinic
Pickeringite,MgAl2(SO4)4·22H2O,"{""Mg"": 1.0, ""Al"": 2.0, ""S"": 4.0, ""O"": 38.0, ""H"": 44.0}",858.823,#FFFFFF,monoclinic
Picotpaulite,TlFe2S3,"{""Tl"": 1.0, ""Fe"": 2.0, ""S"": 3.0}",412.25,#DAA520,orthorhombic
Picromerite,K2Mg(SO4)2·6H2O,"{""K"": 2.0, ""Mg"": 1.0, ""S"": 2.0, ""O"": 14.0, ""H"": 12.0}",402.703,#FFFFFF,monoclinic
Picropharmacolite,Ca4Mg(AsO3OH)2(AsO4)2·11H2O,"{""Ca"": 4.0, ""Mg"": 1.0, ""As"": 4.0, ""O"": 27.0, ""H"": 24.0}",940.47,#FFFFFF,triclinic
Piergorite-(Ce),Ca8Ce2AlLiSi6B8O36(OH)2,"{""Ca"": 8.0, ""Ce"": 2.0, ""Al"": 1.0, ""Li"": 1.0, ""Si"": 6.0, ""B"": 8.0, ""O"": 38.0, ""H"": 2.0}",1499.754,#FFFFFF,monoclinic
Pigotite,Al4C6H5O10·13H2O (?),"{""Al"": 4.0, ""C"": 6.0, ""H"": 31.0, ""O"": 23.0}",579.219,#FFFFFF,
Pilanesbergite,Na2Ca2Fe2Ti2(Si2O7)2O2F2,"{""Na"": 2.0, ""Ca"": 2.0, ""Fe"": 2.0, ""Ti"": 2.0, ""Si"": 4.0, ""O"": 16.0, ""F"": 2.0}",739.88,#556B2F,monoclinic
Pilawite-(Y),Ca2Y2Al4(SiO4)4O2(OH)2,"{""Ca"": 2.0, ""Y"": 2.0, ""Al"": 4.0, ""Si"": 4.0, ""O"": 20.0, ""H"": 2.0}",800.232,#FFFFFF,monoclinic
Pilipenkoite,KCu(AsO4)·H2O,"{""K"": 1.0, ""Cu"": 1.0, ""As"": 1.0, ""O"": 5.0, ""H"": 2.0}",259.577,#FFFFFF,
Pilsenite,Bi4Te3,"{""Bi"": 4.0, ""Te"": 3.0}",1218.72,#D2B48C,hexagonal
Pinalite,Pb3(WO4)OCl2,"{""Pb"": 3.0, ""W"": 1.0, ""O"": 5.0, ""Cl"": 2.0}",956.335,#FFFFFF,orthorhombic
Pinchite,Hg5O4Cl2,"{""Hg"": 5.0, ""O"": 4.0, ""Cl"": 2.0}",1137.846,#FFFFFF,orthorhombic
Pingguite,Bi6Te6+2O15,"{""Bi"": 6.0, ""Te"": 2.0, ""O"": 15.0}",1749.065,#D2B48C,orthorhombic
Pinnoite,MgB2O(OH)6,"{""Mg"": 1.0, ""B"": 2.0, ""O"": 7.0, ""H"": 6.0}",163.966,#FFFFFF,tetragonal
Pintadoite,Ca2V5+2O7·9H2O,"{""Ca"": 2.0, ""V"": 2.0, ""O"": 16.0, ""H"": 18.0}",456.168,#FFFFFF,
Piretite,Ca(UO2)3(Se4+O3)2(OH)4·4H2O,"{""Ca"": 1.0, ""U"": 3.0, ""O"": 20.0, ""Se"": 2.0, ""H"": 12.0}",1244.186,#FFFFFF,orthorhombic
Pirssonite,Na2Ca(CO3)2·2H2O,"{""Na"": 2.0, ""Ca"": 1.0, ""C"": 2.0, ""O"": 8.0, ""H"": 4.0}",242.104,#FFFFFF,orthorhombic
Pitiglianoite,K2Na6(Si6Al6)O24(SO4)·2H2O,"{""K"": 2.0, ""Na"": 6.0, ""Si"": 6.0, ""Al"": 6.0, ""O"": 30.0, ""S"": 1.0, ""H"": 4.0}",1062.6,#FFFFFF,hexagonal
Plagionite,Pb5Sb8S17,"{""Pb"": 5.0, ""Sb"": 8.0, ""S"": 17.0}",2555.1,#708090,monoclinic
Plancheite,Cu8(Si4O11)2(OH)4·H2O,"{""Cu"": 8.0, ""Si"": 8.0, ""O"": 27.0, ""H"": 6.0}",1171.069,#FFFFFF,orthorhombic
Planerite,Al6(PO4)2(PO3OH)2(OH)8·4H2O,"{""Al"": 6.0, ""P"": 4.0, ""O"": 28.0, ""H"": 18.0}",751.904,#FFFFFF,triclinic
Plasilite,Na(UO2)(SO4)(OH)·2H2O,"{""Na"": 1.0, ""U"": 1.0, ""O"": 9.0, ""S"": 1.0, ""H"": 5.0}",442.111,#FFFFFF,monoclinic
Platinum,Pt,"{""Pt"": 1.0}",195.08,#FFFFFF,cubic
Plattnerite,PbO2,"{""Pb"": 1.0, ""O"": 2.0}",239.198,#FFFFFF,tetragonal
Pliniusite,Ca5(VO4)3F,"{""Ca"": 5.0, ""V"": 3.0, ""O"": 12.0, ""F"": 1.0}",564.202,#FFFFFF,hexagonal
Plombierite,Ca4Si6O16(OH)2(H2O)2·(Ca·5H2O),"{""Ca"": 9.0, ""Si"": 6.0, ""O"": 45.0, ""H"": 56.0}",1305.615,#FFFFFF,monoclinic
Plumbogaidonnayite,PbZrSi3O9·2H2O,"{""Pb"": 1.0, ""Zr"": 1.0, ""Si"": 3.0, ""O"": 11.0, ""H"": 4.0}",562.7,#FFFFFF,orthorhombic
Plumbogummite,PbAl3(PO4)(PO3OH)(OH)6,"{""Pb"": 1.0, ""Al"": 3.0, ""P"": 2.0, ""O"": 14.0, ""H"": 7.0}",581.136,#FFFFFF,hexagonal
Plumbojohntomaite,PbFe2+2Fe3+2(PO4)3(OH)3,"{""Pb"": 1.0, ""Fe"": 4.0, ""P"": 3.0, ""O"": 15.0, ""H"": 3.0}",766.511,#556B2F,monoclinic
Plumbonacrite,Pb5(CO3)3O(OH)2,"{""Pb"": 5.0, ""C"": 3.0, ""O"": 12.0, ""H"": 2.0}",1266.037,#FFFFFF,hexagonal
Plumbopalladinite,Pd3Pb2,"{""Pd"": 3.0, ""Pb"": 2.0}",733.66,#FFFFFF,hexagonal
Plumbophyllite,Pb2Si4O10·H2O,"{""Pb"": 2.0, ""Si"": 4.0, ""O"": 11.0, ""H"": 2.0}",704.745,#FFFFFF,orthorhombic
Plumboselite,Pb3O2(SeO3),"{""Pb"": 3.0, ""O"": 5.0, ""Se"": 1.0}",780.566,#FFFFFF,orthorhombic
Plumbotellurite,Pb(Te4+O3),"{""Pb"": 1.0, ""Te"": 1.0, ""O"": 3.0}",382.797,#FFFFFF,orthorhombic
Plumbotsumite,Pb5Si4O8(OH)10,"{""Pb"": 5.0, ""Si"": 4.0, ""O"": 18.0, ""H"": 10.0}",1446.402,#FFFFFF,triclinic
Plumosite,Pb2Sb2S5,"{""Pb"": 2.0, ""Sb"": 2.0, ""S"": 5.0}",818.22,#708090,
Podlesnoite,Ca2Ba(CO3)2F2,"{""Ca"": 2.0, ""Ba"": 1.0, ""C"": 2.0, ""O"": 6.0, ""F"": 2.0}",375.498,#FFFFFF,orthorhombic
Poellmannite,Ca6Al3(OH)18[Na(H2O)6](SO4)2·6H2O,"{""Ca"": 6.0, ""Al"": 3.0, ""O"": 38.0, ""H"": 42.0, ""Na"": 1.0, ""S"": 2.0}",1058.822,#FFFFFF,hexagonal
Pohlite,Pb7(IO3)(OH)4Cl9,"{""Pb"": 7.0, ""I"": 1.0, ""O"": 7.0, ""H"": 4.0, ""Cl"": 9.0}",2012.375,#FFFFFF,triclinic
Poirierite,Mg2SiO4,"{""Mg"": 2.0, ""Si"": 1.0, ""O"": 4.0}",140.691,#FFFFFF,orthorhombic
Poitevinite,Cu(SO4)·H2O,"{""Cu"": 1.0, ""S"": 1.0, ""O"": 5.0, ""H"": 2.0}",177.617,#FFFFFF,triclinic
Pokrovskite,Mg2(CO3)(OH)2,"{""Mg"": 2.0, ""C"": 1.0, ""O"": 5.0, ""H"": 2.0}",142.632,#FFFFFF,monoclinic
Polekhovskyite,MoNiP2,"{""Mo"": 1.0, ""Ni"": 1.0, ""P"": 2.0}",216.591,#7FFF00,hexagonal
Polezhaevaite-(Ce),NaSrCeF6,"{""Na"": 1.0, ""Sr"": 1.0, ""Ce"": 1.0, ""F"": 6.0}",364.718,#FFFFFF,hexagonal
Polkanovite,Rh12As7,"{""Rh"": 12.0, ""As"": 7.0}",1759.374,#808080,hexagonal
Polloneite,AgPb46As26Sb23S120,"{""Ag"": 1.0, ""Pb"": 46.0, ""As"": 26.0, ""Sb"": 23.0, ""S"": 120.0}",18234.722,#708090,monoclinic
Polyarsite,Na7CaMgCu2(AsO4)4F2Cl,"{""Na"": 7.0, ""Ca"": 1.0, ""Mg"": 1.0, ""Cu"": 2.0, ""As"": 4.0, ""O"": 16.0, ""F"": 2.0, ""Cl"": 1.0}",981.523,#FFFFFF,monoclinic
Polydymite,Ni2+Ni3+2S4,"{""Ni"": 3.0, ""S"": 4.0}",304.319,#A9A9A9,cubic
Polyhalite,K2Ca2Mg(SO4)4·2H2O,"{""K"": 2.0, ""Ca"": 2.0, ""Mg"": 1.0, ""S"": 4.0, ""O"": 18.0, ""H"": 4.0}",602.911,#FFFFFF,triclinic
Polylithionite,KLi2AlSi4O10F2,"{""K"": 1.0, ""Li"": 2.0, ""Al"": 1.0, ""Si"": 4.0, ""O"": 10.0, ""F"": 2.0}",390.286,#FFFFFF,monoclinic
Polyphite,Na6(Na4Ca2)2Na2Ti2Na2Ti2(Si2O7)2(PO4)6O4F4,"{""Na"": 18.0, ""Ca"": 4.0, ""Ti"": 4.0, ""Si"": 4.0, ""O"": 42.0, ""P"": 6.0, ""F"": 4.0}",1811.734,#FFFFFF,triclinic
Pomite,Ca3[V4+5V5+10O37(CO3)]·37H2O,"{""Ca"": 3.0, ""V"": 15.0, ""O"": 77.0, ""C"": 1.0, ""H"": 74.0}",2202.89,#FFFFFF,triclinic
Ponomarevite,K4Cu4OCl10,"{""K"": 4.0, ""Cu"": 4.0, ""O"": 1.0, ""Cl"": 10.0}",781.075,#FFFFFF,monoclinic
Popovite,Cu5O2(AsO4)2,"{""Cu"": 5.0, ""O"": 10.0, ""As"": 2.0}",627.564,#00BFFF,triclinic
Popugaevaite,Ca3[B5O6(OH)6]FCl2·8H2O,"{""Ca"": 3.0, ""B"": 5.0, ""O"": 20.0, ""H"": 22.0, ""F"": 1.0, ""Cl"": 2.0}",606.338,#FFFFFF,monoclinic
Portlandite,Ca(OH)2,"{""Ca"": 1.0, ""O"": 2.0, ""H"": 2.0}",74.092,#FFFFFF,hexagonal
Posnjakite,Cu4(SO4)(OH)6·H2O,"{""Cu"": 4.0, ""S"": 1.0, ""O"": 11.0, ""H"": 8.0}",470.297,#FFFFFF,monoclinic
Postite,Mg(H2O)6Al2(OH)2(H2O)8(V10O28)·13H2O,"{""Mg"": 1.0, ""H"": 56.0, ""O"": 57.0, ""Al"": 2.0, ""V"": 10.0}",1556.08,#FFFFFF,orthorhombic
Potarite,PdHg,"{""Pd"": 1.0, ""Hg"": 1.0}",307.01,#FFFFFF,tetragonal
Potassic-arfvedsonite,KNa2(Fe2+4Fe3+)Si8O22(OH)2,"{""K"": 1.0, ""Na"": 2.0, ""Fe"": 5.0, ""Si"": 8.0, ""O"": 24.0, ""H"": 2.0}",974.975,#556B2F,monoclinic
Potassic-chloro-hastingsite,KCa2(Fe2+4Fe3+)(Si6Al2)O22Cl2,"{""K"": 1.0, ""Ca"": 2.0, ""Fe"": 5.0, ""Si"": 6.0, ""Al"": 2.0, ""O"": 22.0, ""Cl"": 2.0}",1043.831,#556B2F,monoclinic
Potassic-chloro-pargasite,KCa2(Mg4Al)(Si6Al2)O22Cl2,"{""K"": 1.0, ""Ca"": 2.0, ""Mg"": 4.0, ""Al"": 3.0, ""Si"": 6.0, ""O"": 22.0, ""Cl"": 2.0}",888.808,#FFFFFF,monoclinic
Potassic-ferri-leakeite,KNa2(Mg2Fe3+2Li)Si8O22(OH)2,"{""K"": 1.0, ""Na"": 2.0, ""Mg"": 2.0, ""Fe"": 2.0, ""Li"": 1.0, ""Si"": 8.0, ""O"": 24.0, ""H"": 2.0}",862.99,#556B2F,monoclinic
Potassic-ferro-ferri-sadanagaite,KCa2(Fe2+3Fe3+2)(Si5Al3)O22(OH)2,"{""K"": 1.0, ""Ca"": 2.0, ""Fe"": 5.0, ""Si"": 5.0, ""Al"": 3.0, ""O"": 24.0, ""H"": 2.0}",1005.842,#556B2F,monoclinic
Potassic-ferro-ferri-taramite,K(NaCa)(Fe2+3Fe3+2)(Si6Al2)O22(OH)2,"{""K"": 1.0, ""Na"": 1.0, ""Ca"": 1.0, ""Fe"": 5.0, ""Si"": 6.0, ""Al"": 2.0, ""O"": 24.0, ""H"": 2.0}",989.857,#556B2F,
Potassic-ferro-pargasite,KCa2(Fe2+4Al)(Si6Al2)O22(OH)2,"{""K"": 1.0, ""Ca"": 2.0, ""Fe"": 4.0, ""Al"": 3.0, ""Si"": 6.0, ""O"": 24.0, ""H"": 2.0}",978.082,#556B2F,monoclinic
Potassic-ferro-sadanagaite,KCa2(Fe2+3Al2)(Si5Al3)O22(OH)2,"{""K"": 1.0, ""Ca"": 2.0, ""Fe"": 3.0, ""Al"": 5.0, ""Si"": 5.0, ""O"": 24.0, ""H"": 2.0}",948.116,#556B2F,
Potassic-ferro-taramite,K(NaCa)(Fe2+3Al2)(Si6Al2)O22(OH)2,"{""K"": 1.0, ""Na"": 1.0, ""Ca"": 1.0, ""Fe"": 3.0, ""Al"": 4.0, ""Si"": 6.0, ""O"": 24.0, ""H"": 2.0}",932.131,#556B2F,monoclinic
Potassic-fluoro-hastingsite,KCa2(Fe2+4Fe3+)(Si6Al2)O22F2,"{""K"": 1.0, ""Ca"": 2.0, ""Fe"": 5.0, ""Si"": 6.0, ""Al"": 2.0, ""O"": 22.0, ""F"": 2.0}",1010.927,#556B2F,monoclinic
Potassic-fluoro-pargasite,KCa2(Mg4Al)Si6Al2O22F2,"{""K"": 1.0, ""Ca"": 2.0, ""Mg"": 4.0, ""Al"": 3.0, ""Si"": 6.0, ""O"": 22.0, ""F"": 2.0}",855.904,#FFFFFF,monoclinic
Potassic-fluoro-richterite,K(NaCa)Mg5Si8O22F2,"{""K"": 1.0, ""Na"": 1.0, ""Ca"": 1.0, ""Mg"": 5.0, ""Si"": 8.0, ""O"": 22.0, ""F"": 2.0}",838.345,#FFFFFF,monoclinic
Potassic-hastingsite,KCa2(Fe2+4Fe3+)(Si6Al2)O22(OH)2,"{""K"": 1.0, ""Ca"": 2.0, ""Fe"": 5.0, ""Si"": 6.0, ""Al"": 2.0, ""O"": 24.0, ""H"": 2.0}",1006.945,#556B2F,monoclinic
Potassic-jeanlouisite,K(NaCa)(Mg4Ti)Si8O22O2,"{""K"": 1.0, ""Na"": 1.0, ""Ca"": 1.0, ""Mg"": 4.0, ""Ti"": 1.0, ""Si"": 8.0, ""O"": 24.0}",855.909,#FFFFFF,monoclinic
Potassic-magnesio-arfvedsonite,KNa2(Mg4Fe3+)Si8O22(OH)2,"{""K"": 1.0, ""Na"": 2.0, ""Mg"": 4.0, ""Fe"": 1.0, ""Si"": 8.0, ""O"": 24.0, ""H"": 2.0}",848.815,#556B2F,monoclinic
Potassic-magnesio-fluoro-arfvedsonite,KNa2(Mg4Fe3+)Si8O22F2,"{""K"": 1.0, ""Na"": 2.0, ""Mg"": 4.0, ""Fe"": 1.0, ""Si"": 8.0, ""O"": 22.0, ""F"": 2.0}",852.797,#556B2F,monoclinic
Potassic-magnesio-hastingsite,KCa2(Mg4Fe3+)(Si6Al2)O22(OH)2,"{""K"": 1.0, ""Ca"": 2.0, ""Mg"": 4.0, ""Fe"": 1.0, ""Si"": 6.0, ""Al"": 2.0, ""O"": 24.0, ""H"": 2.0}",880.785,#556B2F,monoclinic
Potassic-pargasite,KCa2(Mg4Al)(Si6Al2)O22(OH)2,"{""K"": 1.0, ""Ca"": 2.0, ""Mg"": 4.0, ""Al"": 3.0, ""Si"": 6.0, ""O"": 24.0, ""H"": 2.0}",851.922,#FFFFFF,monoclinic
Potassic-richterite,K(NaCa)Mg5Si8O22(OH)2,"{""K"": 1.0, ""Na"": 1.0, ""Ca"": 1.0, ""Mg"": 5.0, ""Si"": 8.0, ""O"": 24.0, ""H"": 2.0}",834.363,#FFFFFF,monoclinic
Potassic-sadanagaite,KCa2(Mg3Al2)(Si5Al3)O22(OH)2,"{""K"": 1.0, ""Ca"": 2.0, ""Mg"": 3.0, ""Al"": 5.0, ""Si"": 5.0, ""O"": 24.0, ""H"": 2.0}",853.496,#FFFFFF,monoclinic
Pottsite,(Pb3Bi)Bi(VO4)4·H2O,"{""Pb"": 3.0, ""Bi"": 2.0, ""V"": 4.0, ""O"": 17.0, ""H"": 2.0}",1517.327,#FFFFFF,tetragonal
Poudretteite,KNa2(B3Si12)O30,"{""K"": 1.0, ""Na"": 2.0, ""B"": 3.0, ""Si"": 12.0, ""O"": 30.0}",934.498,#FFFFFF,hexagonal
Poughite,Fe3+2(Te4+O3)2(SO4)·3H2O,"{""Fe"": 2.0, ""Te"": 2.0, ""O"": 13.0, ""S"": 1.0, ""H"": 6.0}",612.985,#556B2F,orthorhombic
Povondraite,NaFe3+3(Fe3+4Mg2)(Si6O18)(BO3)3(OH)3O,"{""Na"": 1.0, ""Fe"": 7.0, ""Mg"": 2.0, ""Si"": 6.0, ""O"": 31.0, ""B"": 3.0, ""H"": 3.0}",1162.448,#556B2F,hexagonal
Powellite,Ca(MoO4),"{""Ca"": 1.0, ""Mo"": 1.0, ""O"": 4.0}",200.024,#FFFFFF,tetragonal
Poyarkovite,Hg3OCl,"{""Hg"": 3.0, ""O"": 1.0, ""Cl"": 1.0}",653.219,#FFFFFF,monoclinic
Pracharite,CaSb5+2(As3+2O5)2O2·10H2O,"{""Ca"": 1.0, ""Sb"": 2.0, ""As"": 4.0, ""O"": 22.0, ""H"": 20.0}",955.424,#FFFFFF,hexagonal
Pradetite,CoCu4(AsO4)2(AsO3OH)2·9H2O,"{""Co"": 1.0, ""Cu"": 4.0, ""As"": 4.0, ""O"": 25.0, ""H"": 20.0}",1032.94,#FFFFFF,triclinic
Prehnite,Ca2Al(Si3Al)O10(OH)2,"{""Ca"": 2.0, ""Al"": 2.0, ""Si"": 3.0, ""O"": 12.0, ""H"": 2.0}",412.379,#FFFFFF,orthorhombic
Preisingerite,Bi3O(AsO4)2(OH),"{""Bi"": 3.0, ""O"": 10.0, ""As"": 2.0, ""H"": 1.0}",937.782,#FFFFFF,triclinic
Preiswerkite,NaAlMg2(Si2Al2)O10(OH)2,"{""Na"": 1.0, ""Al"": 3.0, ""Mg"": 2.0, ""Si"": 2.0, ""O"": 12.0, ""H"": 2.0}",402.72,#FFFFFF,monoclinic
Preobrazhenskite,Mg3B11O15(OH)9,"{""Mg"": 3.0, ""B"": 11.0, ""O"": 24.0, ""H"": 9.0}",584.873,#FFFFFF,orthorhombic
Pretulite,Sc(PO4),"{""Sc"": 1.0, ""P"": 1.0, ""O"": 4.0}",139.926,#FFFFFF,tetragonal
Pribramite,CuSbSe2,"{""Cu"": 1.0, ""Sb"": 1.0, ""Se"": 2.0}",343.248,#00BFFF,orthorhombic
Priceite,Ca2B5O7(OH)5·H2O,"{""Ca"": 2.0, ""B"": 5.0, ""O"": 13.0, ""H"": 7.0}",349.249,#FFFFFF,monoclinic
Priderite,K(Ti7Fe3+)O16,"{""K"": 1.0, ""Ti"": 7.0, ""Fe"": 1.0, ""O"": 16.0}",685.996,#556B2F,tetragonal
Pringleite,Ca9B26O34(OH)24Cl4·13H2O,"{""Ca"": 9.0, ""B"": 26.0, ""O"": 71.0, ""H"": 50.0, ""Cl"": 4.0}",1969.891,#FFFFFF,triclinic
Priscillagrewite-(Y),YCa2Zr2Al3O12,"{""Y"": 1.0, ""Ca"": 2.0, ""Zr"": 2.0, ""Al"": 3.0, ""O"": 12.0}",624.444,#FFFFFF,cubic
Probertite,NaCaB5O7(OH)4·3H2O,"{""Na"": 1.0, ""Ca"": 1.0, ""B"": 5.0, ""O"": 14.0, ""H"": 10.0}",351.184,#FFFFFF,monoclinic
Prosopite,CaAl2F4(OH)4,"{""Ca"": 1.0, ""Al"": 2.0, ""F"": 4.0, ""O"": 4.0, ""H"": 4.0}",238.062,#FFFFFF,monoclinic
Protasite,Ba(UO2)3O3(OH)2·3H2O,"{""Ba"": 1.0, ""U"": 3.0, ""O"": 14.0, ""H"": 8.0}",1083.47,#FFFFFF,monoclinic
Protocaseyite,[Al4(OH)6(H2O)12][V10O28]·8H2O,"{""Al"": 4.0, ""O"": 54.0, ""H"": 46.0, ""V"": 10.0}",1527.662,#FFFFFF,triclinic
Protoenstatite,Mg2Si2O6,"{""Mg"": 2.0, ""Si"": 2.0, ""O"": 6.0}",200.774,#FFFFFF,orthorhombic
Proto-owyheeite,Ag9Pb40Sb45S112,"{""Ag"": 9.0, ""Pb"": 40.0, ""Sb"": 45.0, ""S"": 112.0}",18328.75,#708090,monoclinic
Proustite,Ag3AsS3,"{""Ag"": 3.0, ""As"": 1.0, ""S"": 3.0}",494.712,#FFD700,hexagonal
Proxidecagonite,Al34Ni9Fe2,"{""Al"": 34.0, ""Ni"": 9.0, ""Fe"": 2.0}",1557.315,#7FFF00,orthorhombic
Proxitwelvefoldite,Pd3Ni4Te8,"{""Pd"": 3.0, ""Ni"": 4.0, ""Te"": 8.0}",1574.832,#7FFF00,tetragonal
Przhevalskite,Pb(UO2)2(PO4)2·4H2O,"{""Pb"": 1.0, ""U"": 2.0, ""O"": 16.0, ""P"": 2.0, ""H"": 8.0}",1009.256,#FFFFFF,
Pseudoboleite,Pb31Cu24Cl62(OH)48,"{""Pb"": 31.0, ""Cu"": 24.0, ""Cl"": 62.0, ""O"": 48.0, ""H"": 48.0}",10962.54,#FFFFFF,tetragonal
Pseudobrookite,(Fe3+2Ti)O5,"{""Fe"": 2.0, ""Ti"": 1.0, ""O"": 5.0}",239.552,#8B4513,orthorhombic
Pseudocotunnite,K2PbCl4 (?),"{""K"": 2.0, ""Pb"": 1.0, ""Cl"": 4.0}",427.196,#FFFFFF,
Pseudodickthomssenite,Mg(VO3)2·8H2O,"{""Mg"": 1.0, ""V"": 2.0, ""O"": 14.0, ""H"": 16.0}",366.303,#FFFFFF,triclinic
Pseudograndreefite,Pb6(SO4)F10,"{""Pb"": 6.0, ""S"": 1.0, ""O"": 4.0, ""F"": 10.0}",1529.236,#FFFFFF,orthorhombic
Pseudojohannite,Cu3(OH)2[(UO2)4O4(SO4)2]·12H2O,"{""Cu"": 3.0, ""O"": 34.0, ""H"": 26.0, ""U"": 4.0, ""S"": 2.0}",1777.052,#FFFFFF,triclinic
Pseudolyonsite,Cu3(VO4)2,"{""Cu"": 3.0, ""V"": 2.0, ""O"": 8.0}",420.514,#00BFFF,monoclinic
Pseudomalachite,Cu5(PO4)2(OH)4,"{""Cu"": 5.0, ""P"": 2.0, ""O"": 12.0, ""H"": 4.0}",575.698,#FFFFFF,monoclinic
Pseudomarkeyite,Ca8(UO2)4(CO3)12(H2O)18·3H2O,"{""Ca"": 8.0, ""U"": 4.0, ""O"": 65.0, ""C"": 12.0, ""H"": 42.0}",2499.147,#FFFFFF,monoclinic
Pseudomeisserite-(NH4),(NH4)2Na4[(UO2)2(SO4)5]·4H2O,"{""N"": 2.0, ""H"": 16.0, ""Na"": 4.0, ""U"": 2.0, ""O"": 28.0, ""S"": 5.0}",1220.434,#FFFFFF,monoclinic
Pseudorutile,Fe3+2Ti4+3O9,"{""Fe"": 2.0, ""Ti"": 3.0, ""O"": 9.0}",399.282,#8B4513,hexagonal
Pseudosinhalite,Mg2Al3B2O9(OH),"{""Mg"": 2.0, ""Al"": 3.0, ""B"": 2.0, ""O"": 10.0, ""H"": 1.0}",312.174,#FFFFFF,monoclinic
Pseudowollastonite,CaSiO3,"{""Ca"": 1.0, ""Si"": 1.0, ""O"": 3.0}",116.16,#FFFFFF,monoclinic
Pucherite,Bi(VO4),"{""Bi"": 1.0, ""V"": 1.0, ""O"": 4.0}",323.918,#D2B48C,orthorhombic
Pumpellyite-(Mg),Ca2MgAl2(Si2O7)(SiO4)(OH)2·H2O,"{""Ca"": 2.0, ""Mg"": 1.0, ""Al"": 2.0, ""Si"": 3.0, ""O"": 14.0, ""H"": 4.0}",470.698,#FFFFFF,monoclinic
Puninite,Na2Cu3O(SO4)3,"{""Na"": 2.0, ""Cu"": 3.0, ""O"": 13.0, ""S"": 3.0}",540.785,#FFFFFF,monoclinic
Punkaruaivite,Li{Ti2(OH)2[Si4O11(OH)]}·H2O,"{""Li"": 1.0, ""Ti"": 2.0, ""O"": 15.0, ""H"": 5.0, ""Si"": 4.0}",460.039,#FFFFFF,monoclinic
Putnisite,SrCa4Cr3+8(CO3)8(SO4)(OH)16·25H2O,"{""Sr"": 1.0, ""Ca"": 4.0, ""Cr"": 8.0, ""C"": 8.0, ""O"": 69.0, ""S"": 1.0, ""H"": 66.0}",1962.507,#FFFFFF,orthorhombic
Pyatenkoite-(Y),Na5YTiSi6O18·6H2O,"{""Na"": 5.0, ""Y"": 1.0, ""Ti"": 1.0, ""Si"": 6.0, ""O"": 24.0, ""H"": 12.0}",816.305,#FFFFFF,hexagonal
Pyracmonite,(NH4)3Fe(SO4)3,"{""N"": 3.0, ""H"": 12.0, ""Fe"": 1.0, ""S"": 3.0, ""O"": 12.0}",398.13,#556B2F,monoclinic
Pyradoketosite,Ag3SbS3,"{""Ag"": 3.0, ""Sb"": 1.0, ""S"": 3.0}",541.55,#A9A9A9,monoclinic
Pyrargyrite,Ag3SbS3,"{""Ag"": 3.0, ""Sb"": 1.0, ""S"": 3.0}",541.55,#A9A9A9,hexagonal
Pyrite,FeS2,"{""Fe"": 1.0, ""S"": 2.0}",119.965,#DAA520,triclinic