name,formula,elements,density,color,crystal_system,dna
Bernardite,TlAs5S8,"{""Tl"": 1.0, ""As"": 5.0, ""S"": 8.0}",835.46,#FFD700,monoclinic,"{""system"": ""monoclinic"", ""scale"": [0.7, 1.0, 1.3], ""optical"": {""transparent"": 0, ""refraction"": 0.0, ""birefringence"": 0.0}}"
Bernarlottiite,Pb12(As10Sb6)S36,"{""Pb"": 12.0, ""As"": 10.0, ""Sb"": 6.0, ""S"": 36.0}",5120.32,#708090,triclinic,"{""system"": ""triclinic"", ""scale"": [0.7, 1.0, 1.3], ""optical"": {""transparent"": 0, ""refraction"": 0.0, ""birefringence"": 0.0}}"
Berndlehmannite,Cu(CrV)S4,"{""Cu"": 1.0, ""Cr"": 1.0, ""V"": 1.0, ""S"": 4.0}",294.73,#A9A9A9,cubic,"{""system"": ""cubic"", ""scale"": [1.0, 1.0, 1.0], ""optical"": {""transparent"": 0, ""refraction"": 0.0, ""birefringence"": 0.0}}"
Berryite,Cu3Ag2Pb3Bi7S16,"{""Cu"": 3.0, ""Ag"": 2.0, ""Pb"": 3.0, ""Bi"": 7.0, ""S"": 16.0}",3003.81,#708090,monoclinic,"{""system"": ""monoclinic"", ""scale"": [0.7, 1.0, 1.3], ""optical"": {""transparent"": 0, ""refraction"": 0.0, ""birefringence"": 0.0}}"
Berthierite,FeSb2S4,"{""Fe"": 1.0, ""Sb"": 2.0, ""S"": 4.0}",427.61,#DAA520,orthorhombic,"{""system"": ""orthorhombic"", ""scale"": [0.8, 1.0, 1.2], ""optical"": {""transparent"": 0, ""refraction"": 0.0, ""birefringence"": 0.0}}"
Bertossaite,Li2CaAl4(PO4)4(OH)4,"{""Li"": 2.0, ""Ca"": 1.0, ""Al"": 4.0, ""P"": 4.0, ""O"": 20.0, ""H"": 4.0}",609.79,#FFFFFF,orthorhombic,"{""system"": ""orthorhombic"", ""scale"": [0.8, 1.0, 1.2], ""optical"": {""transparent"": 1, ""refraction"": 1.5, ""birefringence"": 0.01}}"
Bertrandite,Be4Si2O7(OH)2,"{""Be"": 4.0, ""Si"": 2.0, ""O"": 9.0, ""H"": 2.0}",238.24,#FFFFFF,orthorhombic,"{""system"": ""orthorhombic"", ""scale"": [0.8, 1.0, 1.2], ""optical"": {""transparent"": 1, ""refraction"": 1.5, ""birefringence"": 0.01}}"
Beryl,Be3Al2Si6O18,"{""Be"": 3.0, ""Al"": 2.0, ""Si"": 6.0, ""O"": 18.0}",537.53,#FFFFFF,hexagonal,"{""system"": ""hexagonal"", ""scale"": [1.0, 1.0, 1.6], ""optical"": {""transparent"": 1, ""refraction"": 1.5, ""birefringence"": 0.01}}"
Beryllite,Be3(SiO4)(OH)2·H2O,"{""Be"": 3.0, ""Si"": 1.0, ""O"": 7.0, ""H"": 4.0}",171.15,#FFFFFF,,"{""system"": """", ""scale"": [1.0, 1.0, 1.0], ""optical"": {""transparent"": 1, ""refraction"": 1.5, ""birefringence"": 0.01}}"
Beryllocordierite-Na,NaMg4(Al5Be)(AlSi5O18)2·2H2O,"{""Na"": 1.0, ""Mg"": 4.0, ""Al"": 7.0, ""Be"": 1.0, ""Si"": 10.0, ""O"": 38.0, ""H"": 4.0}",1211.03,#FFFFFF,orthorhombic,"{""system"": ""orthorhombic"", ""scale"": [0.8, 1.0, 1.2], ""optical"": {""transparent"": 1, ""refraction"": 1.5, ""birefringence"": 0.01}}"
Beryllonite,NaBe(PO4),"{""Na"": 1.0, ""Be"": 1.0, ""P"": 1.0, ""O"": 4.0}",126.97,#FFFFFF,monoclinic,"{""system"": ""monoclinic"", ""scale"": [0.7, 1.0, 1.3], ""optical"": {""transparent"": 1, ""refraction"": 1.5, ""birefringence"": 0.01}}"
Berzeliite,(NaCa2)Mg2(AsO4)3,"{""Na"": 1.0, ""Ca"": 2.0, ""Mg"": 2.0, ""As"": 3.0, ""O"": 12.0}",568.53,#FFFFFF,cubic,"{""system"": ""cubic"", ""scale"": [1.0, 1.0, 1.0], ""optical"": {""transparent"": 1, ""refraction"": 1.5, ""birefringence"": 0.0}}"
Beshtauite,(NH4)2(UO2)(SO4)2·2H2O,"{""N"": 2.0, ""H"": 12.0, ""U"": 1.0, ""O"": 12.0, ""S"": 2.0}",534.27,#FFFFFF,monoclinic,"{""system"": ""monoclinic"", ""scale"": [0.7, 1.0, 1.3], ""optical"": {""transparent"": 1, ""refraction"": 1.5, ""birefringence"": 0.01}}"
Betpakdalite-CaCa,[Ca2(H2O)17Ca(H2O)6][Mo6+8As5+2Fe3+3O36(OH)],"{""Ca"": 3.0, ""H"": 47.0, ""O"": 60.0, ""Mo"": 8.0, ""As"": 2.0, ""Fe"": 3.0}",2212.61,#556B2F,monoclinic,"{""system"": ""monoclinic"", ""scale"": [0.7, 1.0, 1.3], ""optical"": {""transparent"": 0, ""refraction"": 0.0, ""birefringence"": 0.0}}"
Betpakdalite-CaMg,[Ca2(H2O)17Mg(H2O)6][Mo6+8As5+2Fe3+3O36(OH)],"{""Ca"": 2.0, ""H"": 47.0, ""O"": 60.0, ""Mg"": 1.0, ""Mo"": 8.0, ""As"": 2.0, ""Fe"": 3.0}",2196.84,#556B2F,monoclinic,"{""system"": ""monoclinic"", ""scale"": [0.7, 1.0, 1.3], ""optical"": {""transparent"": 0, ""refraction"": 0.0, ""birefringence"": 0.0}}"
Betpakdalite-FeFe,[Fe3+2(H2O)15(OH)2Fe3+(H2O)6][Mo8As2Fe3+3O37],"{""Fe"": 6.0, ""H"": 44.0, ""O"": 60.0, ""Mo"": 8.0, ""As"": 2.0}",2256.89,#556B2F,monoclinic,"{""system"": ""monoclinic"", ""scale"": [0.7, 1.0, 1.3], ""optical"": {""transparent"": 0, ""refraction"": 0.0, ""birefringence"": 0.0}}"
Betpakdalite-NaCa,[Na2(H2O)17Ca(H2O)6][Mo6+8As5+2Fe3+3O34(OH)3],"{""Na"": 2.0, ""H"": 49.0, ""O"": 60.0, ""Ca"": 1.0, ""Mo"": 8.0, ""As"": 2.0, ""Fe"": 3.0}",2180.44,#556B2F,monoclinic,"{""system"": ""monoclinic"", ""scale"": [0.7, 1.0, 1.3], ""optical"": {""transparent"": 0, ""refraction"": 0.0, ""birefringence"": 0.0}}"
Betpakdalite-NaNa,[Na2(H2O)16Na(H2O)6][Mo6+8As5+2Fe3+3O33(OH)4],"{""Na"": 3.0, ""H"": 48.0, ""O"": 59.0, ""Mo"": 8.0, ""As"": 2.0, ""Fe"": 3.0}",2146.34,#556B2F,monoclinic,"{""system"": ""monoclinic"", ""scale"": [0.7, 1.0, 1.3], ""optical"": {""transparent"": 0, ""refraction"": 0.0, ""birefringence"": 0.0}}"
Bettertonite,Al6(AsO4)3(OH)9(H2O)5·11H2O,"{""Al"": 6.0, ""As"": 3.0, ""O"": 37.0, ""H"": 41.0}",1019.97,#FFFFFF,monoclinic,"{""system"": ""monoclinic"", ""scale"": [0.7, 1.0, 1.3], ""optical"": {""transparent"": 1, ""refraction"": 1.5, ""birefringence"": 0.01}}"
Betzite,Na6Ca2(Al6Si6O24)Cl4,"{""Na"": 6.0, ""Ca"": 2.0, ""Al"": 6.0, ""Si"": 6.0, ""O"": 24.0, ""Cl"": 4.0}",1074.32,#FFFFFF,hexagonal,"{""system"": ""hexagonal"", ""scale"": [1.0, 1.0, 1.6], ""optical"": {""transparent"": 1, ""refraction"": 1.5, ""birefringence"": 0.01}}"
Beudantite,PbFe3+3(AsO4)(SO4)(OH)6,"{""Pb"": 1.0, ""Fe"": 3.0, ""As"": 1.0, ""O"": 14.0, ""S"": 1.0, ""H"": 6.0}",711.78,#556B2F,hexagonal,"{""system"": ""hexagonal"", ""scale"": [1.0, 1.0, 1.6], ""optical"": {""transparent"": 0, ""refraction"": 0.0, ""birefringence"": 0.0}}"
Beyerite,CaBi2O2(CO3)2,"{""Ca"": 1.0, ""Bi"": 2.0, ""O"": 8.0, ""C"": 2.0}",610.06,#FFFFFF,orthorhombic,"{""system"": ""orthorhombic"", ""scale"": [0.8, 1.0, 1.2], ""optical"": {""transparent"": 1, ""refraction"": 1.5, ""birefringence"": 0.01}}"
Biagioniite,Tl2SbS2,"{""Tl"": 2.0, ""Sb"": 1.0, ""S"": 2.0}",594.64,#A9A9A9,monoclinic,"{""system"": ""monoclinic"", ""scale"": [0.7, 1.0, 1.3], ""optical"": {""transparent"": 0, ""refraction"": 0.0, ""birefringence"": 0.0}}"
Bianchiniite,Ba2(TiV)(As2O5)2OF,"{""Ba"": 2.0, ""Ti"": 1.0, ""V"": 1.0, ""As"": 4.0, ""O"": 11.0, ""F"": 1.0}",868.15,#FFFFFF,tetragonal,"{""system"": ""tetragonal"", ""scale"": [1.0, 1.0, 1.4], ""optical"": {""transparent"": 1, ""refraction"": 1.5, ""birefringence"": 0.01}}"
Bicapite,[KNa2Mg2(H2O)25][H2PV5+12O40(V5+O)2],"{""K"": 1.0, ""Na"": 2.0, ""Mg"": 2.0, ""H"": 52.0, ""O"": 67.0, ""P"": 1.0, ""V"": 14.0}",2002.25,#FFFFFF,tetragonal,"{""system"": ""tetragonal"", ""scale"": [1.0, 1.0, 1.4], ""optical"": {""transparent"": 1, ""refraction"": 1.5, ""birefringence"": 0.01}}"
Bicchulite,Ca2Al2SiO6(OH)2,"{""Ca"": 2.0, ""Al"": 2.0, ""Si"": 1.0, ""O"": 8.0, ""H"": 2.0}",292.23,#FFFFFF,cubic,"{""system"": ""cubic"", ""scale"": [1.0, 1.0, 1.0], ""optical"": {""transparent"": 1, ""refraction"": 1.5, ""birefringence"": 0.0}}"
Bideauxite,AgPb2F2Cl3,"{""Ag"": 1.0, ""Pb"": 2.0, ""F"": 2.0, ""Cl"": 3.0}",666.62,#FFFFFF,cubic,"{""system"": ""cubic"", ""scale"": [1.0, 1.0, 1.0], ""optical"": {""transparent"": 1, ""refraction"": 1.5, ""birefringence"": 0.0}}"
Bieberite,Co(SO4)·7H2O,"{""Co"": 1.0, ""S"": 1.0, ""O"": 11.0, ""H"": 14.0}",281.1,#FFFFFF,monoclinic,"{""system"": ""monoclinic"", ""scale"": [0.7, 1.0, 1.3], ""optical"": {""transparent"": 1, ""refraction"": 1.5, ""birefringence"": 0.01}}"
Biehlite,Sb3+2MoO6,"{""Sb"": 2.0, ""Mo"": 1.0, ""O"": 6.0}",435.47,#A9A9A9,monoclinic,"{""system"": ""monoclinic"", ""scale"": [0.7, 1.0, 1.3], ""optical"": {""transparent"": 0, ""refraction"": 0.0, ""birefringence"": 0.0}}"
Bigcreekite,BaSi2O5·4H2O,"{""Ba"": 1.0, ""Si"": 2.0, ""O"": 9.0, ""H"": 8.0}",345.57,#FFFFFF,orthorhombic,"{""system"": ""orthorhombic"", ""scale"": [0.8, 1.0, 1.2], ""optical"": {""transparent"": 1, ""refraction"": 1.5, ""birefringence"": 0.01}}"
Bijvoetite-(Y),Y8(UO2)16O8(CO3)16(OH)8·39H2O,"{""Y"": 8.0, ""U"": 16.0, ""O"": 135.0, ""C"": 16.0, ""H"": 86.0}",6958.61,#FFFFFF,monoclinic,"{""system"": ""monoclinic"", ""scale"": [0.7, 1.0, 1.3], ""optical"": {""transparent"": 1, ""refraction"": 1.5, ""birefringence"": 0.01}}"
Bikitaite,LiAlSi2O6·H2O,"{""Li"": 1.0, ""Al"": 1.0, ""Si"": 2.0, ""O"": 7.0, ""H"": 2.0}",204.12,#FFFFFF,triclinic,"{""system"": ""triclinic"", ""scale"": [0.7, 1.0, 1.3], ""optical"": {""transparent"": 1, ""refraction"": 1.5, ""birefringence"": 0.01}}"
Bilibinskite,PbAu3Cu2Te2,"{""Pb"": 1.0, ""Au"": 3.0, ""Cu"": 2.0, ""Te"": 2.0}",1180.41,#FFFFFF,cubic,"{""system"": ""cubic"", ""scale"": [1.0, 1.0, 1.0], ""optical"": {""transparent"": 1, ""refraction"": 1.5, ""birefringence"": 0.0}}"
Bilinite,Fe2+Fe3+2(SO4)4·22H2O,"{""Fe"": 3.0, ""S"": 4.0, ""O"": 38.0, ""H"": 44.0}",948.14,#556B2F,monoclinic,"{""system"": ""monoclinic"", ""scale"": [0.7, 1.0, 1.3], ""optical"": {""transparent"": 0, ""refraction"": 0.0, ""birefringence"": 0.0}}"
Billietite,Ba(UO2)6O4(OH)6·8H2O,"{""Ba"": 1.0, ""U"": 6.0, ""O"": 30.0, ""H"": 22.0}",2067.69,#FFFFFF,orthorhombic,"{""system"": ""orthorhombic"", ""scale"": [0.8, 1.0, 1.2], ""optical"": {""transparent"": 1, ""refraction"": 1.5, ""birefringence"": 0.01}}"
Billingsleyite,Ag7AsS6,"{""Ag"": 7.0, ""As"": 1.0, ""S"": 6.0}",1022.37,#FFD700,cubic,"{""system"": ""cubic"", ""scale"": [1.0, 1.0, 1.0], ""optical"": {""transparent"": 0, ""refraction"": 0.0, ""birefringence"": 0.0}}"
Billwiseite,Sb3+5Nb3WO18,"{""Sb"": 5.0, ""Nb"": 3.0, ""W"": 1.0, ""O"": 18.0}",1359.37,#FFFFFF,monoclinic,"{""system"": ""monoclinic"", ""scale"": [0.7, 1.0, 1.3], ""optical"": {""transparent"": 1, ""refraction"": 1.5, ""birefringence"": 0.01}}"
Bimbowrieite,NaMgFe3+5(PO4)4(OH)6·2H2O,"{""Na"": 1.0, ""Mg"": 1.0, ""Fe"": 5.0, ""P"": 4.0, ""O"": 24.0, ""H"": 10.0}",844.51,#556B2F,monoclinic,"{""system"": ""monoclinic"", ""scale"": [0.7, 1.0, 1.3], ""optical"": {""transparent"": 0, ""refraction"": 0.0, ""birefringence"": 0.0}}"
Bindheimite,Pb2Sb5+2O7,"{""Pb"": 2.0, ""Sb"": 2.0, ""O"": 7.0}",769.92,#A9A9A9,cubic,"{""system"": ""cubic"", ""scale"": [1.0, 1.0, 1.0], ""optical"": {""transparent"": 0, ""refraction"": 0.0, ""birefringence"": 0.0}}"
Biphosphammite,(NH4)H2(PO4),"{""N"": 1.0, ""H"": 6.0, ""P"": 1.0, ""O"": 4.0}",115.03,#FFFFFF,tetragonal,"{""system"": ""tetragonal"", ""scale"": [1.0, 1.0, 1.4], ""optical"": {""transparent"": 1, ""refraction"": 1.5, ""birefringence"": 0.01}}"
Biraite-(Ce),Ce2Fe2+(Si2O7)(CO3),"{""Ce"": 2.0, ""Fe"": 1.0, ""Si"": 2.0, ""O"": 10.0, ""C"": 1.0}",564.28,#556B2F,monoclinic,"{""system"": ""monoclinic"", ""scale"": [0.7, 1.0, 1.3], ""optical"": {""transparent"": 0, ""refraction"": 0.0, ""birefringence"": 0.0}}"
Biraite-(La),La2Fe2+(CO3)(Si2O7),"{""La"": 2.0, ""Fe"": 1.0, ""C"": 1.0, ""O"": 10.0, ""Si"": 2.0}",561.86,#556B2F,monoclinic,"{""system"": ""monoclinic"", ""scale"": [0.7, 1.0, 1.3], ""optical"": {""transparent"": 0, ""refraction"": 0.0, ""birefringence"": 0.0}}"
Birchite,Cd2Cu2(PO4)2(SO4)·5H2O,"{""Cd"": 2.0, ""Cu"": 2.0, ""P"": 2.0, ""O"": 17.0, ""S"": 1.0, ""H"": 10.0}",728.0,#FFFFFF,orthorhombic,"{""system"": ""orthorhombic"", ""scale"": [0.8, 1.0, 1.2], ""optical"": {""transparent"": 1, ""refraction"": 1.5, ""birefringence"": 0.01}}"
Biringuccite,Na2B5O8(OH)·H2O,"{""Na"": 2.0, ""B"": 5.0, ""O"": 10.0, ""H"": 3.0}",263.05,#FFFFFF,monoclinic,"{""system"": ""monoclinic"", ""scale"": [0.7, 1.0, 1.3], ""optical"": {""transparent"": 1, ""refraction"": 1.5, ""birefringence"": 0.01}}"
Bischofite,MgCl2·6H2O,"{""Mg"": 1.0, ""Cl"": 2.0, ""H"": 12.0, ""O"": 6.0}",203.31,#FFFFFF,monoclinic,"{""system"": ""monoclinic"", ""scale"": [0.7, 1.0, 1.3], ""optical"": {""transparent"": 1, ""refraction"": 1.5, ""birefringence"": 0.01}}"
Bismite,Bi2O3,"{""Bi"": 2.0, ""O"": 3.0}",465.96,#D2B48C,monoclinic,"{""system"": ""monoclinic"", ""scale"": [0.7, 1.0, 1.3], ""optical"": {""transparent"": 0, ""refraction"": 0.0, ""birefringence"": 0.0}}"
Bismoclite,BiOCl,"{""Bi"": 1.0, ""O"": 1.0, ""Cl"": 1.0}",260.43,#D2B48C,tetragonal,"{""system"": ""tetragonal"", ""scale"": [1.0, 1.0, 1.4], ""optical"": {""transparent"": 0, ""refraction"": 0.0, ""birefringence"": 0.0}}"
Bismuth,Bi,"{""Bi"": 1.0}",208.98,#D2B48C,hexagonal,"{""system"": ""hexagonal"", ""scale"": [1.0, 1.0, 1.6], ""optical"": {""transparent"": 0, ""refraction"": 0.0, ""birefringence"": 0.0}}"
Bismuthinite,Bi2S3,"{""Bi"": 2.0, ""S"": 3.0}",514.14,#A9A9A9,orthorhombic,"{""system"": ""orthorhombic"", ""scale"": [0.8, 1.0, 1.2], ""optical"": {""transparent"": 0, ""refraction"": 0.0, ""birefringence"": 0.0}}"
Bismutite,Bi2O2(CO3),"{""Bi"": 2.0, ""O"": 5.0, ""C"": 1.0}",509.97,#D2B48C,orthorhombic,"{""system"": ""orthorhombic"", ""scale"": [0.8, 1.0, 1.2], ""optical"": {""transparent"": 0, ""refraction"": 0.0, ""birefringence"": 0.0}}"
Bismutocolumbite,BiNbO4,"{""Bi"": 1.0, ""Nb"": 1.0, ""O"": 4.0}",365.89,#D2B48C,orthorhombic,"{""system"": ""orthorhombic"", ""scale"": [0.8, 1.0, 1.2], ""optical"": {""transparent"": 0, ""refraction"": 0.0, ""birefringence"": 0.0}}"
Bismutoferrite,Fe3+2Bi(SiO4)2(OH),"{""Fe"": 2.0, ""Bi"": 1.0, ""Si"": 2.0, ""O"": 9.0, ""H"": 1.0}",521.87,#556B2F,monoclinic,"{""system"": ""monoclinic"", ""scale"": [0.7, 1.0, 1.3], ""optical"": {""transparent"": 0, ""refraction"": 0.0, ""birefringence"": 0.0}}"
Bismutohauchecornite,Ni9Bi2S8,"{""Ni"": 9.0, ""Bi"": 2.0, ""S"": 8.0}",1202.65,#A9A9A9,,"{""system"": """", ""scale"": [1.0, 1.0, 1.0], ""optical"": {""transparent"": 0, ""refraction"": 0.0, ""birefringence"": 0.0}}"
Bismutotantalite,BiTaO4,"{""Bi"": 1.0, ""Ta"": 1.0, ""O"": 4.0}",453.93,#D2B48C,orthorhombic,"{""system"": ""orthorhombic"", ""scale"": [0.8, 1.0, 1.2], ""optical"": {""transparent"": 0, ""refraction"": 0.0, ""birefringence"": 0.0}}"
Bityite,CaLiAl2(Si2BeAl)O10(OH)2,"{""Ca"": 1.0, ""Li"": 1.0, ""Al"": 3.0, ""Si"": 2.0, ""Be"": 1.0, ""O"": 12.0, ""H"": 2.0}",387.17,#FFFFFF,monoclinic,"{""system"": ""monoclinic"", ""scale"": [0.7, 1.0, 1.3], ""optical"": {""transparent"": 1, ""refraction"": 1.5, ""birefringence"": 0.01}}"
Bixbyite-(Fe),Fe3+2O3,"{""Fe"": 2.0, ""O"": 3.0}",159.7,#8B4513,cubic,"{""system"": ""cubic"", ""scale"": [1.0, 1.0, 1.0], ""optical"": {""transparent"": 0, ""refraction"": 0.0, ""birefringence"": 0.0}}"
Blakeite,Fe3+2(Te4+O3)3 (?),"{""Fe"": 2.0, ""Te"": 3.0, ""O"": 9.0}",638.5,#8B4513,,"{""system"": """", ""scale"": [1.0, 1.0, 1.0], ""optical"": {""transparent"": 0, ""refraction"": 0.0, ""birefringence"": 0.0}}"
Blatonite,(UO2)(CO3)·H2O,"{""U"": 1.0, ""O"": 6.0, ""C"": 1.0, ""H"": 2.0}",348.06,#FFFFFF,,"{""system"": """", ""scale"": [1.0, 1.0, 1.0], ""optical"": {""transparent"": 1, ""refraction"": 1.5, ""birefringence"": 0.01}}"
Blixite,Pb8O5(OH)2Cl4,"{""Pb"": 8.0, ""O"": 7.0, ""H"": 2.0, ""Cl"": 4.0}",1913.42,#FFFFFF,monoclinic,"{""system"": ""monoclinic"", ""scale"": [0.7, 1.0, 1.3], ""optical"": {""transparent"": 1, ""refraction"": 1.5, ""birefringence"": 0.01}}"
Blodite,Na2Mg(SO4)2·4H2O,"{""Na"": 2.0, ""Mg"": 1.0, ""S"": 2.0, ""O"": 12.0, ""H"": 8.0}",334.47,#FFFFFF,monoclinic,"{""system"": ""monoclinic"", ""scale"": [0.7, 1.0, 1.3], ""optical"": {""transparent"": 1, ""refraction"": 1.5, ""birefringence"": 0.01}}"
Blossite,Cu2V5+2O7,"{""Cu"": 2.0, ""V"": 2.0, ""O"": 7.0}",340.98,#00BFFF,orthorhombic,"{""system"": ""orthorhombic"", ""scale"": [0.8, 1.0, 1.2], ""optical"": {""transparent"": 0, ""refraction"": 0.0, ""birefringence"": 0.0}}"
Bluebellite,Cu6(IO3)(OH)10Cl,"{""Cu"": 6.0, ""I"": 1.0, ""O"": 13.0, ""H"": 10.0, ""Cl"": 1.0}",761.73,#FFFFFF,hexagonal,"{""system"": ""hexagonal"", ""scale"": [1.0, 1.0, 1.6], ""optical"": {""transparent"": 1, ""refraction"": 1.5, ""birefringence"": 0.01}}"
Bluelizardite,Na7(UO2)(SO4)4Cl(H2O)2,"{""Na"": 7.0, ""U"": 1.0, ""O"": 20.0, ""S"": 4.0, ""Cl"": 1.0, ""H"": 4.0}",886.68,#FFFFFF,monoclinic,"{""system"": ""monoclinic"", ""scale"": [0.7, 1.0, 1.3], ""optical"": {""transparent"": 1, ""refraction"": 1.5, ""birefringence"": 0.01}}"
Bluestreakite,K4Mg2(V4+2V5+8O28)·14H2O,"{""K"": 4.0, ""Mg"": 2.0, ""V"": 10.0, ""O"": 42.0, ""H"": 28.0}",1414.64,#FFFFFF,monoclinic,"{""system"": ""monoclinic"", ""scale"": [0.7, 1.0, 1.3], ""optical"": {""transparent"": 1, ""refraction"": 1.5, ""birefringence"": 0.01}}"
Bobcookite,NaAl(UO2)2(SO4)4·18H2O,"{""Na"": 1.0, ""Al"": 1.0, ""U"": 2.0, ""O"": 38.0, ""S"": 4.0, ""H"": 36.0}",1298.56,#FFFFFF,triclinic,"{""system"": ""triclinic"", ""scale"": [0.7, 1.0, 1.3], ""optical"": {""transparent"": 1, ""refraction"": 1.5, ""birefringence"": 0.01}}"
Bobfinchite,Na[(UO2)8O3(OH)11]·10H2O,"{""Na"": 1.0, ""U"": 8.0, ""O"": 40.0, ""H"": 31.0}",2598.48,#FFFFFF,orthorhombic,"{""system"": ""orthorhombic"", ""scale"": [0.8, 1.0, 1.2], ""optical"": {""transparent"": 1, ""refraction"": 1.5, ""birefringence"": 0.01}}"
Bobierrite,Mg3(PO4)2·8H2O,"{""Mg"": 3.0, ""P"": 2.0, ""O"": 16.0, ""H"": 16.0}",407.0,#FFFFFF,monoclinic,"{""system"": ""monoclinic"", ""scale"": [0.7, 1.0, 1.3], ""optical"": {""transparent"": 1, ""refraction"": 1.5, ""birefringence"": 0.01}}"
Bobjonesite,V4+O(SO4)·3H2O,"{""V"": 1.0, ""O"": 8.0, ""S"": 1.0, ""H"": 6.0}",217.05,#FFFFFF,monoclinic,"{""system"": ""monoclinic"", ""scale"": [0.7, 1.0, 1.3], ""optical"": {""transparent"": 1, ""refraction"": 1.5, ""birefringence"": 0.01}}"
Bobkingite,Cu5Cl2(OH)8·2H2O,"{""Cu"": 5.0, ""Cl"": 2.0, ""O"": 10.0, ""H"": 12.0}",560.75,#FFFFFF,monoclinic,"{""system"": ""monoclinic"", ""scale"": [0.7, 1.0, 1.3], ""optical"": {""transparent"": 1, ""refraction"": 1.5, ""birefringence"": 0.01}}"
Bodieite,Bi3+2(Te4+O3)2(SO4),"{""Bi"": 2.0, ""Te"": 2.0, ""O"": 10.0, ""S"": 1.0}",865.22,#FFFFFF,monoclinic,"{""system"": ""monoclinic"", ""scale"": [0.7, 1.0, 1.3], ""optical"": {""transparent"": 1, ""refraction"": 1.5, ""birefringence"": 0.01}}"
Boevskite,Pb4(TeO3)2(SO4)(S2O3),"{""Pb"": 4.0, ""Te"": 2.0, ""O"": 13.0, ""S"": 3.0}",1388.18,#FFFFFF,orthorhombic,"{""system"": ""orthorhombic"", ""scale"": [0.8, 1.0, 1.2], ""optical"": {""transparent"": 1, ""refraction"": 1.5, ""birefringence"": 0.01}}"
Boggildite,Na2Sr2Al2(PO4)F9,"{""Na"": 2.0, ""Sr"": 2.0, ""Al"": 2.0, ""P"": 1.0, ""O"": 4.0, ""F"": 9.0}",541.15,#FFFFFF,monoclinic,"{""system"": ""monoclinic"", ""scale"": [0.7, 1.0, 1.3], ""optical"": {""transparent"": 1, ""refraction"": 1.5, ""birefringence"": 0.01}}"
Boggsite,Na3Ca8(Si77Al19)O192·70H2O,"{""Na"": 3.0, ""Ca"": 8.0, ""Si"": 77.0, ""Al"": 19.0, ""O"": 262.0, ""H"": 140.0}",7398.28,#FFFFFF,orthorhombic,"{""system"": ""orthorhombic"", ""scale"": [0.8, 1.0, 1.2], ""optical"": {""transparent"": 1, ""refraction"": 1.5, ""birefringence"": 0.01}}"
Bogvadite,Na2Ba2SrAl4F20,"{""Na"": 2.0, ""Ba"": 2.0, ""Sr"": 1.0, ""Al"": 4.0, ""F"": 20.0}",896.18,#FFFFFF,monoclinic,"{""system"": ""monoclinic"", ""scale"": [0.7, 1.0, 1.3], ""optical"": {""transparent"": 1, ""refraction"": 1.5, ""birefringence"": 0.01}}"
Bohdanowiczite,AgBiSe2,"{""Ag"": 1.0, ""Bi"": 1.0, ""Se"": 2.0}",474.77,#C0C0C0,hexagonal,"{""system"": ""hexagonal"", ""scale"": [1.0, 1.0, 1.6], ""optical"": {""transparent"": 0, ""refraction"": 0.0, ""birefringence"": 0.0}}"
Bohmite,AlO(OH),"{""Al"": 1.0, ""O"": 2.0, ""H"": 1.0}",59.99,#FFFFFF,orthorhombic,"{""system"": ""orthorhombic"", ""scale"": [0.8, 1.0, 1.2], ""optical"": {""transparent"": 1, ""refraction"": 1.5, ""birefringence"": 0.01}}"
Bojarite,Cu3(N3C2H2)3(OH)Cl2·6H2O,"{""Cu"": 3.0, ""N"": 9.0, ""C"": 6.0, ""H"": 19.0, ""O"": 7.0, ""Cl"": 2.0}",590.85,#FFFFFF,cubic,"{""system"": ""cubic"", ""scale"": [1.0, 1.0, 1.0], ""optical"": {""transparent"": 1, ""refraction"": 1.5, ""birefringence"": 0.0}}"
Boleite,KAg9Pb26Cu24Cl62(OH)48,"{""K"": 1.0, ""Ag"": 9.0, ""Pb"": 26.0, ""Cu"": 24.0, ""Cl"": 62.0, ""O"": 48.0, ""H"": 48.0}",10936.61,#FFFFFF,cubic,"{""system"": ""cubic"", ""scale"": [1.0, 1.0, 1.0], ""optical"": {""transparent"": 1, ""refraction"": 1.5, ""birefringence"": 0.0}}"