name,formula,elements,density,color,crystal_system,dna
Carbonatecyanotrichite,Cu4Al2(CO3)(OH)12·2H2O,"{""Cu"": 4.0, ""Al"": 2.0, ""C"": 1.0, ""O"": 17.0, ""H"": 16.0}",608.3,#FFFFFF,,"{""system"": """", ""scale"": [1.0, 1.0, 1.0], ""optical"": {""transparent"": 1, ""refraction"": 1.5, ""birefringence"": 0.01}}"
Caresite,Fe2+4Al2(OH)12(CO3)·3H2O,"{""Fe"": 4.0, ""Al"": 2.0, ""O"": 18.0, ""H"": 18.0, ""C"": 1.0}",595.51,#556B2F,hexagonal,"{""system"": ""hexagonal"", ""scale"": [1.0, 1.0, 1.6], ""optical"": {""transparent"": 0, ""refraction"": 0.0, ""birefringence"": 0.0}}"
Carletonmooreite,Ni3Si,"{""Ni"": 3.0, ""Si"": 1.0}",204.16,#7FFF00,cubic,"{""system"": ""cubic"", ""scale"": [1.0, 1.0, 1.0], ""optical"": {""transparent"": 0, ""refraction"": 0.0, ""birefringence"": 0.0}}"
Carlfriesite,CaTe4+2Te6+O8,"{""Ca"": 1.0, ""Te"": 3.0, ""O"": 8.0}",550.88,#FFFFFF,monoclinic,"{""system"": ""monoclinic"", ""scale"": [0.7, 1.0, 1.3], ""optical"": {""transparent"": 1, ""refraction"": 1.5, ""birefringence"": 0.01}}"
Carlgieseckeite-(Nd),NaNdCa3(PO4)3F,"{""Na"": 1.0, ""Nd"": 1.0, ""Ca"": 3.0, ""P"": 3.0, ""O"": 12.0, ""F"": 1.0}",591.38,#FFFFFF,hexagonal,"{""system"": ""hexagonal"", ""scale"": [1.0, 1.0, 1.6], ""optical"": {""transparent"": 1, ""refraction"": 1.5, ""birefringence"": 0.01}}"
Carlhintzeite,Ca2AlF7·H2O,"{""Ca"": 2.0, ""Al"": 1.0, ""F"": 7.0, ""H"": 2.0, ""O"": 1.0}",258.16,#FFFFFF,triclinic,"{""system"": ""triclinic"", ""scale"": [0.7, 1.0, 1.3], ""optical"": {""transparent"": 1, ""refraction"": 1.5, ""birefringence"": 0.01}}"
Carlinite,Tl2S,"{""Tl"": 2.0, ""S"": 1.0}",440.82,#A9A9A9,hexagonal,"{""system"": ""hexagonal"", ""scale"": [1.0, 1.0, 1.6], ""optical"": {""transparent"": 0, ""refraction"": 0.0, ""birefringence"": 0.0}}"
Carlosbarbosaite,(UO2)2Nb2O6(OH)2·2H2O,"{""U"": 2.0, ""O"": 14.0, ""Nb"": 2.0, ""H"": 6.0}",891.93,#FFFFFF,orthorhombic,"{""system"": ""orthorhombic"", ""scale"": [0.8, 1.0, 1.2], ""optical"": {""transparent"": 1, ""refraction"": 1.5, ""birefringence"": 0.01}}"
Carlosruizite,K3Na2Na3Mg5(IO3)6(SeO4)6·6H2O,"{""K"": 3.0, ""Na"": 5.0, ""Mg"": 5.0, ""I"": 6.0, ""O"": 48.0, ""Se"": 6.0, ""H"": 12.0}",2369.06,#FFFFFF,hexagonal,"{""system"": ""hexagonal"", ""scale"": [1.0, 1.0, 1.6], ""optical"": {""transparent"": 1, ""refraction"": 1.5, ""birefringence"": 0.01}}"
Carlsbergite,CrN,"{""Cr"": 1.0, ""N"": 1.0}",66.01,#228B22,cubic,"{""system"": ""cubic"", ""scale"": [1.0, 1.0, 1.0], ""optical"": {""transparent"": 0, ""refraction"": 0.0, ""birefringence"": 0.0}}"
Carlsonite,(NH4)5Fe3+3O(SO4)6·7H2O,"{""N"": 5.0, ""H"": 34.0, ""Fe"": 3.0, ""O"": 32.0, ""S"": 6.0}",976.23,#556B2F,triclinic,"{""system"": ""triclinic"", ""scale"": [0.7, 1.0, 1.3], ""optical"": {""transparent"": 0, ""refraction"": 0.0, ""birefringence"": 0.0}}"
Carmeltazite,ZrAl2Ti4O11,"{""Zr"": 1.0, ""Al"": 2.0, ""Ti"": 4.0, ""O"": 11.0}",512.66,#FFFFFF,orthorhombic,"{""system"": ""orthorhombic"", ""scale"": [0.8, 1.0, 1.2], ""optical"": {""transparent"": 1, ""refraction"": 1.5, ""birefringence"": 0.01}}"
Carminite,PbFe3+2(AsO4)2(OH)2,"{""Pb"": 1.0, ""Fe"": 2.0, ""As"": 2.0, ""O"": 10.0, ""H"": 2.0}",630.76,#556B2F,orthorhombic,"{""system"": ""orthorhombic"", ""scale"": [0.8, 1.0, 1.2], ""optical"": {""transparent"": 0, ""refraction"": 0.0, ""birefringence"": 0.0}}"
Carnallite,KMgCl3·6H2O,"{""K"": 1.0, ""Mg"": 1.0, ""Cl"": 3.0, ""H"": 12.0, ""O"": 6.0}",277.86,#FFFFFF,orthorhombic,"{""system"": ""orthorhombic"", ""scale"": [0.8, 1.0, 1.2], ""optical"": {""transparent"": 1, ""refraction"": 1.5, ""birefringence"": 0.01}}"
Carnotite,K2(UO2)2(VO4)2·3H2O,"{""K"": 2.0, ""U"": 2.0, ""O"": 15.0, ""V"": 2.0, ""H"": 6.0}",902.19,#FFFFFF,monoclinic,"{""system"": ""monoclinic"", ""scale"": [0.7, 1.0, 1.3], ""optical"": {""transparent"": 1, ""refraction"": 1.5, ""birefringence"": 0.01}}"
Carobbiite,KF,"{""K"": 1.0, ""F"": 1.0}",58.1,#FFFFFF,cubic,"{""system"": ""cubic"", ""scale"": [1.0, 1.0, 1.0], ""optical"": {""transparent"": 1, ""refraction"": 1.5, ""birefringence"": 0.0}}"
Carpathite,C24H12,"{""C"": 24.0, ""H"": 12.0}",300.34,#FFFFFF,monoclinic,"{""system"": ""monoclinic"", ""scale"": [0.7, 1.0, 1.3], ""optical"": {""transparent"": 1, ""refraction"": 1.5, ""birefringence"": 0.01}}"
Carraraite,Ca3Ge(SO4)(CO3)(OH)6·12H2O,"{""Ca"": 3.0, ""Ge"": 1.0, ""S"": 1.0, ""O"": 25.0, ""C"": 1.0, ""H"": 30.0}",667.18,#FFFFFF,hexagonal,"{""system"": ""hexagonal"", ""scale"": [1.0, 1.0, 1.6], ""optical"": {""transparent"": 1, ""refraction"": 1.5, ""birefringence"": 0.01}}"
Carrollite,CuCo2S4,"{""Cu"": 1.0, ""Co"": 2.0, ""S"": 4.0}",309.65,#A9A9A9,cubic,"{""system"": ""cubic"", ""scale"": [1.0, 1.0, 1.0], ""optical"": {""transparent"": 0, ""refraction"": 0.0, ""birefringence"": 0.0}}"
Cascandite,CaScSi3O8(OH),"{""Ca"": 1.0, ""Sc"": 1.0, ""Si"": 3.0, ""O"": 9.0, ""H"": 1.0}",314.32,#FFFFFF,triclinic,"{""system"": ""triclinic"", ""scale"": [0.7, 1.0, 1.3], ""optical"": {""transparent"": 1, ""refraction"": 1.5, ""birefringence"": 0.01}}"
Cassagnaite,Ca4Fe3+4V3+2(OH)6O2(Si3O10)(SiO4)2,"{""Ca"": 4.0, ""Fe"": 4.0, ""V"": 2.0, ""O"": 26.0, ""H"": 6.0, ""Si"": 5.0}",1048.1,#556B2F,orthorhombic,"{""system"": ""orthorhombic"", ""scale"": [0.8, 1.0, 1.2], ""optical"": {""transparent"": 0, ""refraction"": 0.0, ""birefringence"": 0.0}}"
Cassedanneite,Pb5(VO4)2(CrO4)2·H2O,"{""Pb"": 5.0, ""V"": 2.0, ""O"": 17.0, ""Cr"": 2.0, ""H"": 2.0}",1515.9,#FFFFFF,monoclinic,"{""system"": ""monoclinic"", ""scale"": [0.7, 1.0, 1.3], ""optical"": {""transparent"": 1, ""refraction"": 1.5, ""birefringence"": 0.01}}"
Cassidyite,Ca2Ni(PO4)2·2H2O,"{""Ca"": 2.0, ""Ni"": 1.0, ""P"": 2.0, ""O"": 10.0, ""H"": 4.0}",364.82,#FFFFFF,triclinic,"{""system"": ""triclinic"", ""scale"": [0.7, 1.0, 1.3], ""optical"": {""transparent"": 1, ""refraction"": 1.5, ""birefringence"": 0.01}}"
Caswellsilverite,NaCrS2,"{""Na"": 1.0, ""Cr"": 1.0, ""S"": 2.0}",139.11,#A9A9A9,hexagonal,"{""system"": ""hexagonal"", ""scale"": [1.0, 1.0, 1.6], ""optical"": {""transparent"": 0, ""refraction"": 0.0, ""birefringence"": 0.0}}"
Catalanoite,Na2(HPO4)·8H2O,"{""Na"": 2.0, ""H"": 17.0, ""P"": 1.0, ""O"": 12.0}",286.09,#FFFFFF,orthorhombic,"{""system"": ""orthorhombic"", ""scale"": [0.8, 1.0, 1.2], ""optical"": {""transparent"": 1, ""refraction"": 1.5, ""birefringence"": 0.01}}"
Catamarcaite,Cu6GeWS8,"{""Cu"": 6.0, ""Ge"": 1.0, ""W"": 1.0, ""S"": 8.0}",894.25,#A9A9A9,hexagonal,"{""system"": ""hexagonal"", ""scale"": [1.0, 1.0, 1.6], ""optical"": {""transparent"": 0, ""refraction"": 0.0, ""birefringence"": 0.0}}"
Catapleiite,Na2Zr(Si3O9)·2H2O,"{""Na"": 2.0, ""Zr"": 1.0, ""Si"": 3.0, ""O"": 11.0, ""H"": 4.0}",401.5,#FFFFFF,monoclinic,"{""system"": ""monoclinic"", ""scale"": [0.7, 1.0, 1.3], ""optical"": {""transparent"": 1, ""refraction"": 1.5, ""birefringence"": 0.01}}"
Cattierite,CoS2,"{""Co"": 1.0, ""S"": 2.0}",123.05,#A9A9A9,cubic,"{""system"": ""cubic"", ""scale"": [1.0, 1.0, 1.0], ""optical"": {""transparent"": 0, ""refraction"": 0.0, ""birefringence"": 0.0}}"
Cattiite,Mg3(PO4)2·22H2O,"{""Mg"": 3.0, ""P"": 2.0, ""O"": 30.0, ""H"": 44.0}",659.22,#FFFFFF,triclinic,"{""system"": ""triclinic"", ""scale"": [0.7, 1.0, 1.3], ""optical"": {""transparent"": 1, ""refraction"": 1.5, ""birefringence"": 0.01}}"
Cavansite,Ca(V4+O)(Si4O10)·4H2O,"{""Ca"": 1.0, ""V"": 1.0, ""O"": 15.0, ""Si"": 4.0, ""H"": 8.0}",451.44,#FFFFFF,orthorhombic,"{""system"": ""orthorhombic"", ""scale"": [0.8, 1.0, 1.2], ""optical"": {""transparent"": 1, ""refraction"": 1.5, ""birefringence"": 0.01}}"
Cavoite,CaV3O7,"{""Ca"": 1.0, ""V"": 3.0, ""O"": 7.0}",304.9,#FFFFFF,orthorhombic,"{""system"": ""orthorhombic"", ""scale"": [0.8, 1.0, 1.2], ""optical"": {""transparent"": 1, ""refraction"": 1.5, ""birefringence"": 0.01}}"
Cayalsite-(Y),CaY6Al2Si4O18F6,"{""Ca"": 1.0, ""Y"": 6.0, ""Al"": 2.0, ""Si"": 4.0, ""O"": 18.0, ""F"": 6.0}",1141.86,#FFFFFF,monoclinic,"{""system"": ""monoclinic"", ""scale"": [0.7, 1.0, 1.3], ""optical"": {""transparent"": 1, ""refraction"": 1.5, ""birefringence"": 0.01}}"
Cebaite-(Ce),Ba3Ce2(CO3)5F2,"{""Ba"": 3.0, ""Ce"": 2.0, ""C"": 5.0, ""O"": 15.0, ""F"": 2.0}",1030.28,#FFFFFF,monoclinic,"{""system"": ""monoclinic"", ""scale"": [0.7, 1.0, 1.3], ""optical"": {""transparent"": 1, ""refraction"": 1.5, ""birefringence"": 0.01}}"
Cebollite,Ca5Al2(SiO4)3(OH)4,"{""Ca"": 5.0, ""Al"": 2.0, ""Si"": 3.0, ""O"": 16.0, ""H"": 4.0}",598.66,#FFFFFF,,"{""system"": """", ""scale"": [1.0, 1.0, 1.0], ""optical"": {""transparent"": 1, ""refraction"": 1.5, ""birefringence"": 0.01}}"
Cechite,PbFe2+(VO4)(OH),"{""Pb"": 1.0, ""Fe"": 1.0, ""V"": 1.0, ""O"": 5.0, ""H"": 1.0}",395.0,#556B2F,orthorhombic,"{""system"": ""orthorhombic"", ""scale"": [0.8, 1.0, 1.2], ""optical"": {""transparent"": 0, ""refraction"": 0.0, ""birefringence"": 0.0}}"
Cejkaite,Na4(UO2)(CO3)3,"{""Na"": 4.0, ""U"": 1.0, ""O"": 11.0, ""C"": 3.0}",542.02,#FFFFFF,monoclinic,"{""system"": ""monoclinic"", ""scale"": [0.7, 1.0, 1.3], ""optical"": {""transparent"": 1, ""refraction"": 1.5, ""birefringence"": 0.01}}"
Celadonite,KMgFe3+Si4O10(OH)2,"{""K"": 1.0, ""Mg"": 1.0, ""Fe"": 1.0, ""Si"": 4.0, ""O"": 12.0, ""H"": 2.0}",425.64,#556B2F,monoclinic,"{""system"": ""monoclinic"", ""scale"": [0.7, 1.0, 1.3], ""optical"": {""transparent"": 0, ""refraction"": 0.0, ""birefringence"": 0.0}}"
Celestine,Sr(SO4),"{""Sr"": 1.0, ""S"": 1.0, ""O"": 4.0}",183.68,#FFFF00,orthorhombic,"{""system"": ""orthorhombic"", ""scale"": [0.8, 1.0, 1.2], ""optical"": {""transparent"": 0, ""refraction"": 0.0, ""birefringence"": 0.0}}"
Celsian,Ba(Al2Si2O8),"{""Ba"": 1.0, ""Al"": 2.0, ""Si"": 2.0, ""O"": 8.0}",375.47,#FFFFFF,monoclinic,"{""system"": ""monoclinic"", ""scale"": [0.7, 1.0, 1.3], ""optical"": {""transparent"": 1, ""refraction"": 1.5, ""birefringence"": 0.01}}"
Cerchiaraite-(Al),Ba4Al4(Si4O12)O2(OH)4Cl2[Si2O3(OH)4],"{""Ba"": 4.0, ""Al"": 4.0, ""Si"": 6.0, ""O"": 25.0, ""H"": 8.0, ""Cl"": 2.0}",1304.74,#FFFFFF,tetragonal,"{""system"": ""tetragonal"", ""scale"": [1.0, 1.0, 1.4], ""optical"": {""transparent"": 1, ""refraction"": 1.5, ""birefringence"": 0.01}}"
Cerchiaraite-(Fe),Ba4Fe3+4(Si4O12)O2(OH)4Cl2[Si2O3(OH)4],"{""Ba"": 4.0, ""Fe"": 4.0, ""Si"": 6.0, ""O"": 25.0, ""H"": 8.0, ""Cl"": 2.0}",1420.22,#556B2F,tetragonal,"{""system"": ""tetragonal"", ""scale"": [1.0, 1.0, 1.4], ""optical"": {""transparent"": 0, ""refraction"": 0.0, ""birefringence"": 0.0}}"
Cerianite-(Ce),CeO2,"{""Ce"": 1.0, ""O"": 2.0}",172.12,#FFFFFF,cubic,"{""system"": ""cubic"", ""scale"": [1.0, 1.0, 1.0], ""optical"": {""transparent"": 1, ""refraction"": 1.5, ""birefringence"": 0.0}}"
Cerium,Ce,"{""Ce"": 1.0}",140.12,#FFFFFF,hexagonal,"{""system"": ""hexagonal"", ""scale"": [1.0, 1.0, 1.6], ""optical"": {""transparent"": 1, ""refraction"": 1.5, ""birefringence"": 0.01}}"
Cerromojonite,CuPbBiSe3,"{""Cu"": 1.0, ""Pb"": 1.0, ""Bi"": 1.0, ""Se"": 3.0}",716.61,#FFFFFF,orthorhombic,"{""system"": ""orthorhombic"", ""scale"": [0.8, 1.0, 1.2], ""optical"": {""transparent"": 1, ""refraction"": 1.5, ""birefringence"": 0.01}}"
Ceruleite,CuAl4(AsO4)2(OH)8(H2O)4,"{""Cu"": 1.0, ""Al"": 4.0, ""As"": 2.0, ""O"": 20.0, ""H"": 16.0}",657.44,#FFFFFF,triclinic,"{""system"": ""triclinic"", ""scale"": [0.7, 1.0, 1.3], ""optical"": {""transparent"": 1, ""refraction"": 1.5, ""birefringence"": 0.01}}"
Cerussite,Pb(CO3),"{""Pb"": 1.0, ""C"": 1.0, ""O"": 3.0}",267.21,#FFFFFF,orthorhombic,"{""system"": ""orthorhombic"", ""scale"": [0.8, 1.0, 1.2], ""optical"": {""transparent"": 1, ""refraction"": 1.5, ""birefringence"": 0.01}}"
Cervantite,Sb3+Sb5+O4,"{""Sb"": 2.0, ""O"": 4.0}",307.52,#A9A9A9,orthorhombic,"{""system"": ""orthorhombic"", ""scale"": [0.8, 1.0, 1.2], ""optical"": {""transparent"": 0, ""refraction"": 0.0, ""birefringence"": 0.0}}"
Cervelleite,Ag4TeS,"{""Ag"": 4.0, ""Te"": 1.0, ""S"": 1.0}",591.14,#A9A9A9,cubic,"{""system"": ""cubic"", ""scale"": [1.0, 1.0, 1.0], ""optical"": {""transparent"": 0, ""refraction"": 0.0, ""birefringence"": 0.0}}"
Cesanite,Ca2Na3(SO4)3OH,"{""Ca"": 2.0, ""Na"": 3.0, ""S"": 3.0, ""O"": 13.0, ""H"": 1.0}",454.32,#FFFFFF,hexagonal,"{""system"": ""hexagonal"", ""scale"": [1.0, 1.0, 1.6], ""optical"": {""transparent"": 1, ""refraction"": 1.5, ""birefringence"": 0.01}}"
Cesarferreiraite,Fe2+Fe3+2(AsO4)2(OH)2·8H2O,"{""Fe"": 3.0, ""As"": 2.0, ""O"": 18.0, ""H"": 18.0}",623.53,#556B2F,triclinic,"{""system"": ""triclinic"", ""scale"": [0.7, 1.0, 1.3], ""optical"": {""transparent"": 0, ""refraction"": 0.0, ""birefringence"": 0.0}}"
Cesbronite,Cu3Te6+O4(OH)4,"{""Cu"": 3.0, ""Te"": 1.0, ""O"": 8.0, ""H"": 4.0}",450.28,#FFFFFF,orthorhombic,"{""system"": ""orthorhombic"", ""scale"": [0.8, 1.0, 1.2], ""optical"": {""transparent"": 1, ""refraction"": 1.5, ""birefringence"": 0.01}}"
Cesiodymite,CsKCu5O(SO4)5,"{""Cs"": 1.0, ""K"": 1.0, ""Cu"": 5.0, ""O"": 21.0, ""S"": 5.0}",986.06,#FFFFFF,triclinic,"{""system"": ""triclinic"", ""scale"": [0.7, 1.0, 1.3], ""optical"": {""transparent"": 1, ""refraction"": 1.5, ""birefringence"": 0.01}}"
Cesplumtantite,Cs2Pb3Ta8O24,"{""Cs"": 2.0, ""Pb"": 3.0, ""Ta"": 8.0, ""O"": 24.0}",2719.02,#FFFFFF,tetragonal,"{""system"": ""tetragonal"", ""scale"": [1.0, 1.0, 1.4], ""optical"": {""transparent"": 1, ""refraction"": 1.5, ""birefringence"": 0.01}}"
Cetineite,NaK5Sb14S6O18(H2O)6,"{""Na"": 1.0, ""K"": 5.0, ""Sb"": 14.0, ""S"": 6.0, ""O"": 24.0, ""H"": 12.0}",2511.59,#FFFFFF,hexagonal,"{""system"": ""hexagonal"", ""scale"": [1.0, 1.0, 1.6], ""optical"": {""transparent"": 1, ""refraction"": 1.5, ""birefringence"": 0.01}}"
Chabazite-Ca,Ca2[Al4Si8O24]·13H2O,"{""Ca"": 2.0, ""Al"": 4.0, ""Si"": 8.0, ""O"": 37.0, ""H"": 26.0}",1031.01,#FFFFFF,triclinic,"{""system"": ""triclinic"", ""scale"": [0.7, 1.0, 1.3], ""optical"": {""transparent"": 1, ""refraction"": 1.5, ""birefringence"": 0.01}}"
Chabazite-Na,(Na3K)[Al4Si8O24]·11H2O,"{""Na"": 3.0, ""K"": 1.0, ""Al"": 4.0, ""Si"": 8.0, ""O"": 35.0, ""H"": 22.0}",1022.89,#FFFFFF,triclinic,"{""system"": ""triclinic"", ""scale"": [0.7, 1.0, 1.3], ""optical"": {""transparent"": 1, ""refraction"": 1.5, ""birefringence"": 0.01}}"
Chadwickite,(UO2)(HAsO3),"{""U"": 1.0, ""O"": 5.0, ""H"": 1.0, ""As"": 1.0}",393.96,#FFFFFF,tetragonal,"{""system"": ""tetragonal"", ""scale"": [1.0, 1.0, 1.4], ""optical"": {""transparent"": 1, ""refraction"": 1.5, ""birefringence"": 0.01}}"
Chalcanthite,Cu(SO4)·5H2O,"{""Cu"": 1.0, ""S"": 1.0, ""O"": 9.0, ""H"": 10.0}",249.69,#FFFFFF,triclinic,"{""system"": ""triclinic"", ""scale"": [0.7, 1.0, 1.3], ""optical"": {""transparent"": 1, ""refraction"": 1.5, ""birefringence"": 0.01}}"
Chalcoalumite,CuAl4(SO4)(OH)12·3H2O,"{""Cu"": 1.0, ""Al"": 4.0, ""S"": 1.0, ""O"": 19.0, ""H"": 18.0}",525.67,#FFFFFF,monoclinic,"{""system"": ""monoclinic"", ""scale"": [0.7, 1.0, 1.3], ""optical"": {""transparent"": 1, ""refraction"": 1.5, ""birefringence"": 0.01}}"
Chalcocite,Cu2S,"{""Cu"": 2.0, ""S"": 1.0}",159.16,#A9A9A9,cubic,"{""system"": ""cubic"", ""scale"": [1.0, 1.0, 1.0], ""optical"": {""transparent"": 0, ""refraction"": 0.0, ""birefringence"": 0.0}}"
Chalcocyanite,Cu(SO4),"{""Cu"": 1.0, ""S"": 1.0, ""O"": 4.0}",159.61,#00BFFF,orthorhombic,"{""system"": ""orthorhombic"", ""scale"": [0.8, 1.0, 1.2], ""optical"": {""transparent"": 0, ""refraction"": 0.0, ""birefringence"": 0.0}}"
Chalcomenite,Cu(Se4+O3)·2H2O,"{""Cu"": 1.0, ""Se"": 1.0, ""O"": 5.0, ""H"": 4.0}",226.54,#FFFFFF,orthorhombic,"{""system"": ""orthorhombic"", ""scale"": [0.8, 1.0, 1.2], ""optical"": {""transparent"": 1, ""refraction"": 1.5, ""birefringence"": 0.01}}"
Chalconatronite,Na2Cu(CO3)2·3H2O,"{""Na"": 2.0, ""Cu"": 1.0, ""C"": 2.0, ""O"": 9.0, ""H"": 6.0}",283.6,#FFFFFF,monoclinic,"{""system"": ""monoclinic"", ""scale"": [0.7, 1.0, 1.3], ""optical"": {""transparent"": 1, ""refraction"": 1.5, ""birefringence"": 0.01}}"
Chalcophyllite,Cu18Al2(AsO4)4(SO4)3(OH)24·36H2O,"{""Cu"": 18.0, ""Al"": 2.0, ""As"": 4.0, ""O"": 88.0, ""S"": 3.0, ""H"": 96.0}",3098.49,#FFFFFF,hexagonal,"{""system"": ""hexagonal"", ""scale"": [1.0, 1.0, 1.6], ""optical"": {""transparent"": 1, ""refraction"": 1.5, ""birefringence"": 0.01}}"
Chalcopyrite,CuFeS2,"{""Cu"": 1.0, ""Fe"": 1.0, ""S"": 2.0}",183.52,#DAA520,cubic,"{""system"": ""cubic"", ""scale"": [1.0, 1.0, 1.0], ""optical"": {""transparent"": 0, ""refraction"": 0.0, ""birefringence"": 0.0}}"
Chalcosiderite,CuFe3+6(PO4)4(OH)8·4H2O,"{""Cu"": 1.0, ""Fe"": 6.0, ""P"": 4.0, ""O"": 28.0, ""H"": 16.0}",986.66,#556B2F,triclinic,"{""system"": ""triclinic"", ""scale"": [0.7, 1.0, 1.3], ""optical"": {""transparent"": 0, ""refraction"": 0.0, ""birefringence"": 0.0}}"
Chalcostibite,CuSbS2,"{""Cu"": 1.0, ""Sb"": 1.0, ""S"": 2.0}",249.43,#A9A9A9,orthorhombic,"{""system"": ""orthorhombic"", ""scale"": [0.8, 1.0, 1.2], ""optical"": {""transparent"": 0, ""refraction"": 0.0, ""birefringence"": 0.0}}"
Challacolloite,KPb2Cl5,"{""K"": 1.0, ""Pb"": 2.0, ""Cl"": 5.0}",630.75,#FFFFFF,monoclinic,"{""system"": ""monoclinic"", ""scale"": [0.7, 1.0, 1.3], ""optical"": {""transparent"": 1, ""refraction"": 1.5, ""birefringence"": 0.01}}"
Changbaiite,PbNb2O6,"{""Pb"": 1.0, ""Nb"": 2.0, ""O"": 6.0}",489.02,#FFFFFF,hexagonal,"{""system"": ""hexagonal"", ""scale"": [1.0, 1.0, 1.6], ""optical"": {""transparent"": 1, ""refraction"": 1.5, ""birefringence"": 0.01}}"
Changchengite,IrBiS,"{""Ir"": 1.0, ""Bi"": 1.0, ""S"": 1.0}",433.26,#A9A9A9,cubic,"{""system"": ""cubic"", ""scale"": [1.0, 1.0, 1.0], ""optical"": {""transparent"": 0, ""refraction"": 0.0, ""birefringence"": 0.0}}"
Chantalite,CaAl2(SiO4)(OH)4,"{""Ca"": 1.0, ""Al"": 2.0, ""Si"": 1.0, ""O"": 8.0, ""H"": 4.0}",254.16,#FFFFFF,tetragonal,"{""system"": ""tetragonal"", ""scale"": [1.0, 1.0, 1.4], ""optical"": {""transparent"": 1, ""refraction"": 1.5, ""birefringence"": 0.01}}"
Chaoite,C,"{""C"": 1.0}",12.01,#FFFFFF,hexagonal,"{""system"": ""hexagonal"", ""scale"": [1.0, 1.0, 1.6], ""optical"": {""transparent"": 1, ""refraction"": 1.5, ""birefringence"": 0.01}}"
Chapmanite,Fe3+2Sb3+(Si2O5)O3(OH),"{""Fe"": 2.0, ""Sb"": 1.0, ""Si"": 2.0, ""O"": 9.0, ""H"": 1.0}",434.65,#556B2F,monoclinic,"{""system"": ""monoclinic"", ""scale"": [0.7, 1.0, 1.3], ""optical"": {""transparent"": 0, ""refraction"": 0.0, ""birefringence"": 0.0}}"
Charleshatchettite,CaNb4O10(OH)2·8H2O,"{""Ca"": 1.0, ""Nb"": 4.0, ""O"": 20.0, ""H"": 18.0}",749.86,#FFFFFF,monoclinic,"{""system"": ""monoclinic"", ""scale"": [0.7, 1.0, 1.3], ""optical"": {""transparent"": 1, ""refraction"": 1.5, ""birefringence"": 0.01}}"
Chayesite,KMg4Fe3+[Si12O30],"{""K"": 1.0, ""Mg"": 4.0, ""Fe"": 1.0, ""Si"": 12.0, ""O"": 30.0}",1009.27,#556B2F,hexagonal,"{""system"": ""hexagonal"", ""scale"": [1.0, 1.0, 1.6], ""optical"": {""transparent"": 0, ""refraction"": 0.0, ""birefringence"": 0.0}}"
Chegemite,Ca7(SiO4)3(OH)2,"{""Ca"": 7.0, ""Si"": 3.0, ""O"": 14.0, ""H"": 2.0}",590.85,#FFFFFF,orthorhombic,"{""system"": ""orthorhombic"", ""scale"": [0.8, 1.0, 1.2], ""optical"": {""transparent"": 1, ""refraction"": 1.5, ""birefringence"": 0.01}}"
Chekhovichite,Bi3+2Te4+4O11,"{""Bi"": 2.0, ""Te"": 4.0, ""O"": 11.0}",1104.36,#D2B48C,monoclinic,"{""system"": ""monoclinic"", ""scale"": [0.7, 1.0, 1.3], ""optical"": {""transparent"": 0, ""refraction"": 0.0, ""birefringence"": 0.0}}"
Chelkarite,CaMgB2O4Cl2·7H2O (?),"{""Ca"": 1.0, ""Mg"": 1.0, ""B"": 2.0, ""O"": 11.0, ""Cl"": 2.0, ""H"": 14.0}",347.02,#FFFFFF,orthorhombic,"{""system"": ""orthorhombic"", ""scale"": [0.8, 1.0, 1.2], ""optical"": {""transparent"": 1, ""refraction"": 1.5, ""birefringence"": 0.01}}"
Chenevixite,CuFe3+(AsO4)(OH)2,"{""Cu"": 1.0, ""Fe"": 1.0, ""As"": 1.0, ""O"": 6.0, ""H"": 2.0}",292.34,#556B2F,monoclinic,"{""system"": ""monoclinic"", ""scale"": [0.7, 1.0, 1.3], ""optical"": {""transparent"": 0, ""refraction"": 0.0, ""birefringence"": 0.0}}"
Chengdeite,Ir3Fe,"{""Ir"": 3.0, ""Fe"": 1.0}",632.51,#8B4513,cubic,"{""system"": ""cubic"", ""scale"": [1.0, 1.0, 1.0], ""optical"": {""transparent"": 0, ""refraction"": 0.0, ""birefringence"": 0.0}}"