name,formula,elements,density,color,crystal,pm_ids,gacha_weight
Benitoite,BaTiSi3O9,"{""Ba"": 1.0, ""Ti"": 1.0, ""Si"": 3.0, ""O"": 9.0}",413.443,#FFFFFF,hexagonal,"{19,23,35}",1.1021281e-05
Benjaminite,Ag3Bi7S12,"{""Ag"": 3.0, ""Bi"": 7.0, ""S"": 12.0}",2171.19,#A9A9A9,monoclinic,{33},2.51e-10
Bennesherite,Ba2Fe2+Si2O7,"{""Ba"": 2.0, ""Fe"": 1.0, ""Si"": 2.0, ""O"": 7.0}",498.668,#556B2F,tetragonal,{51},7.8125e-08
Benstonite,Ba6Ca6Mg(CO3)13,"{""Ba"": 6.0, ""Ca"": 6.0, ""Mg"": 1.0, ""C"": 13.0, ""O"": 39.0}",1868.857,#FFFFFF,hexagonal,"{32,36}",5.8636e-08
Bentorite,Ca6Cr2(SO4)3(OH)12·26H2O,"{""Ca"": 6.0, ""Cr"": 2.0, ""S"": 3.0, ""O"": 50.0, ""H"": 64.0}",1305.102,#FFFFFF,hexagonal,"{31,51}",2.124e-09
Benyacarite,(H2O)2Mn2(Ti2Fe3+)(PO4)4(OF)(H2O)10·4H2O,"{""H"": 32.0, ""O"": 33.0, ""Mn"": 2.0, ""Ti"": 2.0, ""Fe"": 1.0, ""P"": 4.0, ""F"": 1.0}",964.572,#556B2F,orthorhombic,"{34,47}",8.394e-09
Beraunite,Fe3+6(PO4)4O(OH)4·6H2O,"{""Fe"": 6.0, ""P"": 4.0, ""O"": 27.0, ""H"": 16.0}",907.067,#556B2F,monoclinic,"{21,47,53}",3.622e-08
Berborite,Be2(BO3)(OH)·H2O,"{""Be"": 2.0, ""B"": 1.0, ""O"": 5.0, ""H"": 3.0}",111.8534,#FFFFFF,hexagonal,"{31,47}",1.7824e-07
Berdesinskiite,V3+2TiO5,"{""V"": 2.0, ""Ti"": 1.0, ""O"": 5.0}",229.746,#FFFFFF,monoclinic,{53},2.5641e-08
Berezanskite,KTi2Li3Si12O30,"{""K"": 1.0, ""Ti"": 2.0, ""Li"": 3.0, ""Si"": 12.0, ""O"": 30.0}",972.642,#FFFFFF,hexagonal,{35},4.132e-09
Bergenite,Ca2Ba4(UO2)9O6(PO4)6·16H2O,"{""Ca"": 2.0, ""Ba"": 4.0, ""U"": 9.0, ""O"": 64.0, ""P"": 6.0, ""H"": 32.0}",4013.782,#FFFFFF,monoclinic,{47},1.5015e-08
Bergslagite,CaBe(AsO4)(OH),"{""Ca"": 1.0, ""Be"": 1.0, ""As"": 1.0, ""O"": 5.0, ""H"": 1.0}",205.0152,#FFFFFF,monoclinic,"{20,32,46}",4.38802e-07
Berlinite,Al(PO4),"{""Al"": 1.0, ""P"": 1.0, ""O"": 4.0}",121.952,#FFFFFF,hexagonal,"{23,47}",1.90894e-07
Bermanite,Mn2+Mn3+2(PO4)2(OH)2·4H2O,"{""Mn"": 3.0, ""P"": 2.0, ""O"": 14.0, ""H"": 10.0}",460.828,#FFFFFF,monoclinic,"{32,34,47}",9.608e-09
Bernalite,Fe(OH)3,"{""Fe"": 1.0, ""O"": 3.0, ""H"": 3.0}",106.866,#8B4513,orthorhombic,"{32,47,55}",4.03371e-07
Bernardevansite,Al2(Se4+O3)3·6H2O,"{""Al"": 2.0, ""Se"": 3.0, ""O"": 15.0, ""H"": 12.0}",542.958,#FFFFFF,monoclinic,{47},1.5015e-07
Bernardite,TlAs5S8,"{""Tl"": 1.0, ""As"": 5.0, ""S"": 8.0}",835.47,#FFD700,monoclinic,{33},2.51e-10
Bernarlottiite,Pb12(As10Sb6)S36,"{""Pb"": 12.0, ""As"": 10.0, ""Sb"": 6.0, ""S"": 36.0}",5120.34,#708090,triclinic,{33},2.51e-10
Berndlehmannite,Cu(CrV)S4,"{""Cu"": 1.0, ""Cr"": 1.0, ""V"": 1.0, ""S"": 4.0}",294.724,#A9A9A9,cubic,{},2e-08
Berndtite,SnS2,"{""Sn"": 1.0, ""S"": 2.0}",182.83,#A9A9A9,hexagonal,{33},2.51e-10
Berryite,Cu3Ag2Pb3Bi7S16,"{""Cu"": 3.0, ""Ag"": 2.0, ""Pb"": 3.0, ""Bi"": 7.0, ""S"": 16.0}",3003.798,#708090,monoclinic,{33},2.51e-10
Berthierite,FeSb2S4,"{""Fe"": 1.0, ""Sb"": 2.0, ""S"": 4.0}",427.605,#DAA520,orthorhombic,{33},2.51e-10
Bertossaite,Li2CaAl4(PO4)4(OH)4,"{""Li"": 2.0, ""Ca"": 1.0, ""Al"": 4.0, ""P"": 4.0, ""O"": 20.0, ""H"": 4.0}",609.794,#FFFFFF,orthorhombic,{34},1.773e-09
Bertrandite,Be4Si2O7(OH)2,"{""Be"": 4.0, ""Si"": 2.0, ""O"": 9.0, ""H"": 2.0}",238.2258,#FFFFFF,orthorhombic,"{19,34,35}",3.499654e-05
Beryl,Be3Al2Si6O18,"{""Be"": 3.0, ""Al"": 2.0, ""Si"": 6.0, ""O"": 18.0}",537.4926,#FFFFFF,hexagonal,"{19,20,23,34,35,40}",4.6381944e-05
Beryllite,Be3(SiO4)(OH)2·H2O,"{""Be"": 3.0, ""Si"": 1.0, ""O"": 7.0, ""H"": 4.0}",171.1466,#FFFFFF,unknown,"{23,35}",1.772568e-06
Beryllocordierite-Na,NaMg4(Al5Be)(AlSi5O18)2·2H2O,"{""Na"": 1.0, ""Mg"": 4.0, ""Al"": 7.0, ""Be"": 1.0, ""Si"": 10.0, ""O"": 38.0, ""H"": 4.0}",1210.9402,#FFFFFF,orthorhombic,{},1e-06
Beryllonite,NaBe(PO4),"{""Na"": 1.0, ""Be"": 1.0, ""P"": 1.0, ""O"": 4.0}",126.9722,#FFFFFF,monoclinic,"{34,35,47}",1.8165e-08
Beryllosachanbinskiite-Na,NaMn4(Al5Be)(AlSi5O18)2·2H2O,"{""Na"": 1.0, ""Mn"": 4.0, ""Al"": 7.0, ""Be"": 1.0, ""Si"": 10.0, ""O"": 38.0, ""H"": 4.0}",1333.4722,#FFFFFF,orthorhombic,{},5e-08
Berzeliite,(NaCa2)Mg2(AsO4)3,"{""Na"": 1.0, ""Ca"": 2.0, ""Mg"": 2.0, ""As"": 3.0, ""O"": 12.0}",568.51,#FFFFFF,cubic,{32},2.4272e-08
Beshtauite,(NH4)2(UO2)(SO4)2·2H2O,"{""N"": 2.0, ""H"": 12.0, ""U"": 1.0, ""O"": 12.0, ""S"": 2.0}",534.248,#FFFFFF,monoclinic,"{47,53}",4.712e-09
Betpakdalite-CaCa,[Ca2(H2O)17Ca(H2O)6][Mo6+8As5+2Fe3+3O36(OH)],"{""Ca"": 3.0, ""H"": 47.0, ""O"": 60.0, ""Mo"": 8.0, ""As"": 2.0, ""Fe"": 3.0}",2212.529,#556B2F,monoclinic,{47},1.5015e-07
Betpakdalite-CaMg,[Ca2(H2O)17Mg(H2O)6][Mo6+8As5+2Fe3+3O36(OH)],"{""Ca"": 2.0, ""H"": 47.0, ""O"": 60.0, ""Mg"": 1.0, ""Mo"": 8.0, ""As"": 2.0, ""Fe"": 3.0}",2196.756,#556B2F,monoclinic,{47},1.5015e-07
Betpakdalite-FeFe,[Fe3+2(H2O)15(OH)2Fe3+(H2O)6][Mo8As2Fe3+3O37],"{""Fe"": 6.0, ""H"": 44.0, ""O"": 60.0, ""Mo"": 8.0, ""As"": 2.0}",2256.806,#556B2F,monoclinic,{47},1.5015e-07
Betpakdalite-NaCa,[Na2(H2O)17Ca(H2O)6][Mo6+8As5+2Fe3+3O34(OH)3],"{""Na"": 2.0, ""H"": 49.0, ""O"": 60.0, ""Ca"": 1.0, ""Mo"": 8.0, ""As"": 2.0, ""Fe"": 3.0}",2180.369,#556B2F,monoclinic,{47},1.5015e-07
Betpakdalite-NaNa,[Na2(H2O)16Na(H2O)6][Mo6+8As5+2Fe3+3O33(OH)4],"{""Na"": 3.0, ""H"": 48.0, ""O"": 59.0, ""Mo"": 8.0, ""As"": 2.0, ""Fe"": 3.0}",2146.274,#556B2F,monoclinic,{47},1.5015e-07
Bettertonite,Al6(AsO4)3(OH)9(H2O)5·11H2O,"{""Al"": 6.0, ""As"": 3.0, ""O"": 37.0, ""H"": 41.0}",1019.949,#FFFFFF,monoclinic,{47},1.5015e-07
Betzite,Na6Ca2(Al6Si6O24)Cl4,"{""Na"": 6.0, ""Ca"": 2.0, ""Al"": 6.0, ""Si"": 6.0, ""O"": 24.0, ""Cl"": 4.0}",1074.274,#FFFFFF,hexagonal,{10},9.3458e-08
Beudantite,PbFe3+3(AsO4)(SO4)(OH)6,"{""Pb"": 1.0, ""Fe"": 3.0, ""As"": 1.0, ""O"": 14.0, ""S"": 1.0, ""H"": 6.0}",711.751,#556B2F,hexagonal,{47},3.003e-09
Beusite,Mn2+Mn2+2(PO4)2,"{""Mn"": 3.0, ""P"": 2.0, ""O"": 8.0}",354.754,#FFB6C1,monoclinic,"{5,34,56}",9.702e-09
Beusite-(Ca),CaMn2+2(PO4)2,"{""Ca"": 1.0, ""Mn"": 2.0, ""P"": 2.0, ""O"": 8.0}",339.894,#FFFFFF,monoclinic,{34},8.87e-10
Beyerite,CaBi2O2(CO3)2,"{""Ca"": 1.0, ""Bi"": 2.0, ""O"": 8.0, ""C"": 2.0}",610.052,#FFFFFF,orthorhombic,{47},1.5015e-07
Biagioniite,Tl2SbS2,"{""Tl"": 2.0, ""Sb"": 1.0, ""S"": 2.0}",594.64,#A9A9A9,monoclinic,{33},2.51e-10
Bianchiniite,Ba2(TiV)(As2O5)2OF,"{""Ba"": 2.0, ""Ti"": 1.0, ""V"": 1.0, ""As"": 4.0, ""O"": 11.0, ""F"": 1.0}",868.144,#FFFFFF,tetragonal,{47},7.508e-09
Bianchite,Zn(SO4)·6H2O,"{""Zn"": 1.0, ""S"": 1.0, ""O"": 10.0, ""H"": 12.0}",269.526,#FFFFFF,monoclinic,"{47,55}",3.761e-09
Bicapite,[KNa2Mg2(H2O)25][H2PV5+12O40(V5+O)2],"{""K"": 1.0, ""Na"": 2.0, ""Mg"": 2.0, ""H"": 52.0, ""O"": 67.0, ""P"": 1.0, ""V"": 14.0}",2002.199,#FFFFFF,tetragonal,"{47,55}",1.8803e-08
Bicchulite,Ca2Al2SiO6(OH)2,"{""Ca"": 2.0, ""Al"": 2.0, ""Si"": 1.0, ""O"": 8.0, ""H"": 2.0}",292.213,#FFFFFF,cubic,"{23,31,51}",2.424512e-06
Bideauxite,AgPb2F2Cl3,"{""Ag"": 1.0, ""Pb"": 2.0, ""F"": 2.0, ""Cl"": 3.0}",666.616,#FFFFFF,cubic,{47},7.508e-09
Bieberite,Co(SO4)·7H2O,"{""Co"": 1.0, ""S"": 1.0, ""O"": 11.0, ""H"": 14.0}",281.094,#FFFFFF,monoclinic,{47},3.003e-09
Biehlite,Sb3+2MoO6,"{""Sb"": 2.0, ""Mo"": 1.0, ""O"": 6.0}",435.464,#A9A9A9,monoclinic,"{47,57}",3.54232e-07
Bigcreekite,BaSi2O5·4H2O,"{""Ba"": 1.0, ""Si"": 2.0, ""O"": 9.0, ""H"": 8.0}",345.555,#FFFFFF,orthorhombic,{47},1.5015e-07
Bijvoetite-(Y),Y8(UO2)16O8(CO3)16(OH)8·39H2O,"{""Y"": 8.0, ""U"": 16.0, ""O"": 135.0, ""C"": 16.0, ""H"": 86.0}",6958.457,#FFFFFF,monoclinic,{47},1.5015e-07
Bikitaite,LiAlSi2O6·H2O,"{""Li"": 1.0, ""Al"": 1.0, ""Si"": 2.0, ""O"": 7.0, ""H"": 2.0}",204.101,#FFFFFF,triclinic,"{22,34,47}",2.08366e-07
Bilibinskite,PbAu3Cu2Te2,"{""Pb"": 1.0, ""Au"": 3.0, ""Cu"": 2.0, ""Te"": 2.0}",1180.402,#FFFFFF,cubic,{33},1.2547e-08
Bilinite,Fe2+Fe3+2(SO4)4·22H2O,"{""Fe"": 3.0, ""S"": 4.0, ""O"": 38.0, ""H"": 44.0}",948.089,#556B2F,monoclinic,"{45,47,50,55}",4.965e-09
Billietite,Ba(UO2)6O4(OH)6·8H2O,"{""Ba"": 1.0, ""U"": 6.0, ""O"": 30.0, ""H"": 22.0}",2067.656,#FFFFFF,orthorhombic,{47},1.5015e-07
Billingsleyite,Ag7AsS6,"{""Ag"": 7.0, ""As"": 1.0, ""S"": 6.0}",1022.372,#FFD700,cubic,{33},2.51e-10
Billwiseite,Sb3+5Nb3WO18,"{""Sb"": 5.0, ""Nb"": 3.0, ""W"": 1.0, ""O"": 18.0}",1359.34,#FFFFFF,monoclinic,{34},1.773e-08
Bimbowrieite,NaMgFe3+5(PO4)4(OH)6·2H2O,"{""Na"": 1.0, ""Mg"": 1.0, ""Fe"": 5.0, ""P"": 4.0, ""O"": 24.0, ""H"": 10.0}",844.472,#556B2F,monoclinic,"{34,47}",1.6788e-08
Bindheimite,Pb2Sb5+2O7,"{""Pb"": 2.0, ""Sb"": 2.0, ""O"": 7.0}",769.913,#A9A9A9,cubic,{47},1.5015e-07
Biphosphammite,(NH4)H2(PO4),"{""N"": 1.0, ""H"": 6.0, ""P"": 1.0, ""O"": 4.0}",115.025,#FFFFFF,tetragonal,"{47,52}",2.8904e-08
Biraite-(Ce),Ce2Fe2+(Si2O7)(CO3),"{""Ce"": 2.0, ""Fe"": 1.0, ""Si"": 2.0, ""O"": 10.0, ""C"": 1.0}",564.256,#556B2F,monoclinic,{36},3.4364e-08
Biraite-(La),La2Fe2+(CO3)(Si2O7),"{""La"": 2.0, ""Fe"": 1.0, ""C"": 1.0, ""O"": 10.0, ""Si"": 2.0}",561.836,#556B2F,monoclinic,{36},3.4364e-08
Birchite,Cd2Cu2(PO4)2(SO4)·5H2O,"{""Cd"": 2.0, ""Cu"": 2.0, ""P"": 2.0, ""O"": 17.0, ""S"": 1.0, ""H"": 10.0}",727.983,#FFFFFF,orthorhombic,{47},3.003e-09
Biringuccite,Na2B5O8(OH)·H2O,"{""Na"": 2.0, ""B"": 5.0, ""O"": 10.0, ""H"": 3.0}",263.044,#FFFFFF,monoclinic,"{47,55,57}",3.92111e-07
Bischofite,MgCl2·6H2O,"{""Mg"": 1.0, ""Cl"": 2.0, ""H"": 12.0, ""O"": 6.0}",203.295,#FFFFFF,monoclinic,"{25,45,47}",2.21354e-07
Bismite,Bi2O3,"{""Bi"": 2.0, ""O"": 3.0}",465.957,#D2B48C,monoclinic,{47},1.5015e-07
Bismoclite,BiOCl,"{""Bi"": 1.0, ""O"": 1.0, ""Cl"": 1.0}",260.429,#D2B48C,tetragonal,"{26,34}",5.773e-08
Bismuth,Bi,"{""Bi"": 1.0}",208.98,#D2B48C,hexagonal,"{33,34,50,54}",1.09643e-07
Bismuthinite,Bi2S3,"{""Bi"": 2.0, ""S"": 3.0}",514.14,#A9A9A9,orthorhombic,"{11,12,33,50,54}",8.944e-09
Bismutite,Bi2O2(CO3),"{""Bi"": 2.0, ""O"": 5.0, ""C"": 1.0}",509.966,#D2B48C,orthorhombic,"{34,47}",1.67881e-07
Bismutocolumbite,BiNbO4,"{""Bi"": 1.0, ""Nb"": 1.0, ""O"": 4.0}",365.882,#D2B48C,orthorhombic,{34},1.773e-08
Bismutoferrite,Fe3+2Bi(SiO4)2(OH),"{""Fe"": 2.0, ""Bi"": 1.0, ""Si"": 2.0, ""O"": 9.0, ""H"": 1.0}",521.839,#556B2F,monoclinic,"{23,33}",1.771341e-06
Bismutohauchecornite,Ni9Bi2S8,"{""Ni"": 9.0, ""Bi"": 2.0, ""S"": 8.0}",1202.677,#A9A9A9,unknown,{33},2.51e-10
Bismutotantalite,BiTaO4,"{""Bi"": 1.0, ""Ta"": 1.0, ""O"": 4.0}",453.926,#D2B48C,orthorhombic,{34},1.773e-08
Bitikleite,Ca3(SbSn)(AlO4)3,"{""Ca"": 3.0, ""Sb"": 1.0, ""Sn"": 1.0, ""Al"": 3.0, ""O"": 12.0}",633.638,#FFFFFF,cubic,{31},2.809e-08
Bityite,CaLiAl2(Si2BeAl)O10(OH)2,"{""Ca"": 1.0, ""Li"": 1.0, ""Al"": 3.0, ""Si"": 2.0, ""Be"": 1.0, ""O"": 12.0, ""H"": 2.0}",387.1502,#FFFFFF,monoclinic,"{34,47}",1.67881e-07
Bixbyite-(Fe),Fe3+2O3,"{""Fe"": 2.0, ""O"": 3.0}",159.687,#8B4513,cubic,{10},1.7757e-07
Bixbyite-(Mn),Mn3+2O3,"{""Mn"": 2.0, ""O"": 3.0}",157.873,#FFB6C1,cubic,{32},1.214e-09
Bjarebyite,BaMn2+2Al2(PO4)3(OH)3,"{""Ba"": 1.0, ""Mn"": 2.0, ""Al"": 2.0, ""P"": 3.0, ""O"": 15.0, ""H"": 3.0}",637.101,#FFFFFF,monoclinic,"{22,34,47}",1.0418e-08
Blakeite,Fe3+2(Te4+O3)3 (?),"{""Fe"": 2.0, ""Te"": 3.0, ""O"": 9.0}",638.481,#8B4513,unknown,{47},1.5015e-07
Blatonite,(UO2)(CO3)·H2O,"{""U"": 1.0, ""O"": 6.0, ""C"": 1.0, ""H"": 2.0}",348.051,#FFFFFF,unknown,{47},1.5015e-07
Blatterite,Sb5+3Mn3+9Mn2+35(BO3)16O32,"{""Sb"": 3.0, ""Mn"": 44.0, ""B"": 16.0, ""O"": 80.0}",4235.432,#FFFFFF,orthorhombic,{32},1.214e-09
Blixite,Pb8O5(OH)2Cl4,"{""Pb"": 8.0, ""O"": 7.0, ""H"": 2.0, ""Cl"": 4.0}",1913.409,#FFFFFF,monoclinic,"{32,56}",9.4202e-08
Blodite,Na2Mg(SO4)2·4H2O,"{""Na"": 2.0, ""Mg"": 1.0, ""S"": 2.0, ""O"": 12.0, ""H"": 8.0}",334.457,#FFFFFF,monoclinic,"{25,45,47,50,54}",6.014e-09
Blossite,Cu2V5+2O7,"{""Cu"": 2.0, ""V"": 2.0, ""O"": 7.0}",340.969,#00BFFF,orthorhombic,{45},2.3585e-08
Bluebellite,Cu6(IO3)(OH)10Cl,"{""Cu"": 6.0, ""I"": 1.0, ""O"": 13.0, ""H"": 10.0, ""Cl"": 1.0}",761.693,#FFFFFF,hexagonal,{47},1.5015e-07
Bluelizardite,Na7(UO2)(SO4)4Cl(H2O)2,"{""Na"": 7.0, ""U"": 1.0, ""O"": 20.0, ""S"": 4.0, ""Cl"": 1.0, ""H"": 4.0}",886.662,#FFFFFF,monoclinic,"{47,55}",3.761e-09
Blueridgeite,[Pb8Zn3Cu2+(OH)16](SO4)2(S2O3)2·2H2O,"{""Pb"": 8.0, ""Zn"": 3.0, ""Cu"": 1.0, ""O"": 32.0, ""H"": 20.0, ""S"": 6.0}",2641.774,#FFFFFF,monoclinic,{},2e-08
Bluestreakite,K4Mg2(V4+2V5+8O28)·14H2O,"{""K"": 4.0, ""Mg"": 2.0, ""V"": 10.0, ""O"": 42.0, ""H"": 28.0}",1414.604,#FFFFFF,monoclinic,"{47,55}",1.88029e-07
Bobcookite,NaAl(UO2)2(SO4)4·18H2O,"{""Na"": 1.0, ""Al"": 1.0, ""U"": 2.0, ""O"": 38.0, ""S"": 4.0, ""H"": 36.0}",1298.522,#FFFFFF,triclinic,"{47,55}",3.761e-09
Bobfinchite,Na[(UO2)8O3(OH)11]·10H2O,"{""Na"": 1.0, ""U"": 8.0, ""O"": 40.0, ""H"": 31.0}",2598.438,#FFFFFF,orthorhombic,{47},1.5015e-07
Bobierrite,Mg3(PO4)2·8H2O,"{""Mg"": 3.0, ""P"": 2.0, ""O"": 16.0, ""H"": 16.0}",406.975,#FFFFFF,monoclinic,"{47,52,53}",3.7451e-08
Bobjonesite,V4+O(SO4)·3H2O,"{""V"": 1.0, ""O"": 8.0, ""S"": 1.0, ""H"": 6.0}",217.042,#FFFFFF,monoclinic,{47},3.003e-09
Bobkingite,Cu5Cl2(OH)8·2H2O,"{""Cu"": 5.0, ""Cl"": 2.0, ""O"": 10.0, ""H"": 12.0}",560.716,#FFFFFF,monoclinic,{47},1.5015e-07
Bodieite,Bi3+2(Te4+O3)2(SO4),"{""Bi"": 2.0, ""Te"": 2.0, ""O"": 10.0, ""S"": 1.0}",865.21,#FFFFFF,monoclinic,{47},3.003e-09
Boevskite,Pb4(TeO3)2(SO4)(S2O3),"{""Pb"": 4.0, ""Te"": 2.0, ""O"": 13.0, ""S"": 3.0}",1388.167,#FFFFFF,orthorhombic,{},2e-08
Boggildite,Na2Sr2Al2(PO4)F9,"{""Na"": 2.0, ""Sr"": 2.0, ""Al"": 2.0, ""P"": 1.0, ""O"": 4.0, ""F"": 9.0}",541.136,#FFFFFF,monoclinic,{47},7.508e-09
Boggsite,Na3Ca8(Si77Al19)O192·70H2O,"{""Na"": 3.0, ""Ca"": 8.0, ""Si"": 77.0, ""Al"": 19.0, ""O"": 262.0, ""H"": 140.0}",7397.655,#FFFFFF,orthorhombic,{10},1.21495e-07
Bogvadite,Na2Ba2SrAl4F20,"{""Na"": 2.0, ""Ba"": 2.0, ""Sr"": 1.0, ""Al"": 4.0, ""F"": 20.0}",896.148,#FFFFFF,monoclinic,"{23,25}",9.0321e-08
Bohdanowiczite,AgBiSe2,"{""Ag"": 1.0, ""Bi"": 1.0, ""Se"": 2.0}",474.792,#C0C0C0,hexagonal,{33},1.2547e-08
Bohmite,AlO(OH),"{""Al"": 1.0, ""O"": 2.0, ""H"": 1.0}",59.988,#FFFFFF,orthorhombic,"{22,48}",5.2586e-07
Bojarite,Cu3(N3C2H2)3(OH)Cl2·6H2O,"{""Cu"": 3.0, ""N"": 9.0, ""C"": 6.0, ""H"": 19.0, ""O"": 7.0, ""Cl"": 2.0}",590.812,#FFFFFF,cubic,{52},1.38889e-07
Boleite,KAg9Pb26Cu24Cl62(OH)48,"{""K"": 1.0, ""Ag"": 9.0, ""Pb"": 26.0, ""Cu"": 24.0, ""Cl"": 62.0, ""O"": 48.0, ""H"": 48.0}",10936.468,#FFFFFF,cubic,"{47,56}",2.2008e-07
Bolivarite,Al2(PO4)(OH)3·4H2O,"{""Al"": 2.0, ""P"": 1.0, ""O"": 11.0, ""H"": 11.0}",272.015,#FFFFFF,unknown,{47},1.5015e-08
Bonaccordite,Ni2Fe3+O2(BO3),"{""Ni"": 2.0, ""Fe"": 1.0, ""O"": 5.0, ""B"": 1.0}",264.036,#556B2F,orthorhombic,"{23,47}",1.908944e-06
Bonaccorsiite,KK2Na3(Al6Si36)O84,"{""K"": 3.0, ""Na"": 3.0, ""Al"": 6.0, ""Si"": 36.0, ""O"": 84.0}",2703.132,#FFFFFF,hexagonal,{},1.4e-06
Bonacinaite,Sc(AsO4)·2H2O,"{""Sc"": 1.0, ""As"": 1.0, ""O"": 6.0, ""H"": 4.0}",219.904,#FFFFFF,triclinic,{47},1.5015e-07
Bonattite,Cu(SO4)·3H2O,"{""Cu"": 1.0, ""S"": 1.0, ""O"": 7.0, ""H"": 6.0}",213.647,#FFFFFF,monoclinic,"{45,47}",3.475e-09
Bonazziite,As4S4,"{""As"": 4.0, ""S"": 4.0}",427.928,#FFD700,monoclinic,"{33,50,54}",1.838e-09
Bonshtedtite,Na3Fe2+(PO4)(CO3),"{""Na"": 3.0, ""Fe"": 1.0, ""P"": 1.0, ""O"": 7.0, ""C"": 1.0}",279.793,#556B2F,monoclinic,"{35,36,50}",8.477e-09
Boojumite,Pb8O4(OH)2(S2O3)3,"{""Pb"": 8.0, ""O"": 15.0, ""H"": 2.0, ""S"": 6.0}",2091.961,#FFFFFF,orthorhombic,{47},3.003e-09
Boothite,Cu(SO4)·7H2O,"{""Cu"": 1.0, ""S"": 1.0, ""O"": 11.0, ""H"": 14.0}",285.707,#FFFFFF,monoclinic,"{45,47,55}",4.232e-09
Boracite,Mg3B7O13Cl,"{""Mg"": 3.0, ""B"": 7.0, ""O"": 13.0, ""Cl"": 1.0}",392.022,#FFFFFF,cubic,{25},4.7619e-08
Boralsilite,Al16B6O30(Si2O7),"{""Al"": 16.0, ""B"": 6.0, ""O"": 37.0, ""Si"": 2.0}",1144.705,#FFFFFF,monoclinic,{19},3.4965035e-05
Borax,Na2B4O5(OH)4·8H2O,"{""Na"": 2.0, ""B"": 4.0, ""O"": 17.0, ""H"": 20.0}",381.363,#FFFFFF,monoclinic,{25},4.7619e-08
Borcarite,Ca4MgB4O6(CO3)2(OH)6,"{""Ca"": 4.0, ""Mg"": 1.0, ""B"": 4.0, ""O"": 18.0, ""C"": 2.0, ""H"": 6.0}",545.909,#FFFFFF,monoclinic,"{31,47}",1.7824e-07
Bornhardtite,Co2+Co3+2Se4,"{""Co"": 3.0, ""Se"": 4.0}",492.683,#4169E1,cubic,{33},1.2547e-08
Bornite,Cu5FeS4,"{""Cu"": 5.0, ""Fe"": 1.0, ""S"": 4.0}",501.815,#DAA520,hexagonal,"{6,8,12,15,31,37,50,53,54}",1.43148e-07
Borocookeite,LiAl4(Si3B)O10(OH)8,"{""Li"": 1.0, ""Al"": 4.0, ""Si"": 3.0, ""B"": 1.0, ""O"": 18.0, ""H"": 8.0}",505.979,#FFFFFF,monoclinic,{34},1.773e-08
Boromullite,Al9BSi2O19,"{""Al"": 9.0, ""B"": 1.0, ""Si"": 2.0, ""O"": 19.0}",613.799,#FFFFFF,orthorhombic,{40},9.404389e-06
Boromuscovite,KAl2(Si3B)O10(OH)2,"{""K"": 1.0, ""Al"": 2.0, ""Si"": 3.0, ""B"": 1.0, ""O"": 12.0, ""H"": 2.0}",382.131,#FFFFFF,monoclinic,"{23,34}",1.776524e-06
Borovskite,Pd3SbTe4,"{""Pd"": 3.0, ""Sb"": 1.0, ""Te"": 4.0}",951.42,#A9A9A9,cubic,{33},1.2547e-08
Bortnikovite,Pd4Cu3Zn,"{""Pd"": 4.0, ""Cu"": 3.0, ""Zn"": 1.0}",681.698,#00BFFF,tetragonal,{7},8.1301e-08
Borzeckiite,Pb(UO2)3(SeO3)2O2·3H2O,"{""Pb"": 1.0, ""U"": 3.0, ""O"": 17.0, ""Se"": 2.0, ""H"": 6.0}",1357.263,#FFFFFF,orthorhombic,{},1e-06
Boscardinite,TlPb4(Sb7As2)Σ=9S18,"{""Tl"": 1.0, ""Pb"": 4.0, ""Sb"": 63.0, ""As"": 18.0, ""S"": 18.0}",10629.736,#708090,triclinic,{33},2.51e-10
Bosiite,NaFe3+3(Al4Mg2)(Si6O18)(BO3)3(OH)3O,"{""Na"": 1.0, ""Fe"": 3.0, ""Al"": 4.0, ""Mg"": 2.0, ""Si"": 6.0, ""O"": 31.0, ""B"": 3.0, ""H"": 3.0}",1046.996,#556B2F,hexagonal,"{23,34,40}",1.1180913e-05
Bostwickite,CaMn3+6Si3O16·7H2O,"{""Ca"": 1.0, ""Mn"": 6.0, ""Si"": 3.0, ""O"": 23.0, ""H"": 14.0}",836.05,#FFFFFF,unknown,"{32,47}",8.721e-09
Botallackite,Cu2Cl(OH)3,"{""Cu"": 2.0, ""Cl"": 1.0, ""O"": 3.0, ""H"": 3.0}",213.563,#FFFFFF,monoclinic,"{15,47,56}",5.3258e-07
Botryogen,MgFe3+(SO4)2(OH)·7H2O,"{""Mg"": 1.0, ""Fe"": 1.0, ""S"": 2.0, ""O"": 16.0, ""H"": 15.0}",415.374,#556B2F,monoclinic,{47},3.003e-09
Bottinoite,NiSb5+2(OH)12·6H2O,"{""Ni"": 1.0, ""Sb"": 2.0, ""O"": 18.0, ""H"": 24.0}",614.387,#FFFFFF,hexagonal,"{47,57}",3.54232e-07
Botuobinskite,SrFe2+(Ti4+12Cr3+6)Mg2[O36(OH)2],"{""Sr"": 1.0, ""Fe"": 1.0, ""Ti"": 12.0, ""Cr"": 6.0, ""Mg"": 2.0, ""O"": 38.0, ""H"": 2.0}",1688.433,#556B2F,hexagonal,{7},2.439e-08
Boulangerite,Pb5Sb4S11,"{""Pb"": 5.0, ""Sb"": 4.0, ""S"": 11.0}",1875.7,#708090,monoclinic,{33},2.51e-10
Bounahasite,Cu1+Cu2+2(OH)3Cl2,"{""Cu"": 3.0, ""O"": 3.0, ""H"": 3.0, ""Cl"": 2.0}",312.559,#FFFFFF,monoclinic,{47},1.5015e-07
Bournonite,CuPbSbS3,"{""Cu"": 1.0, ""Pb"": 1.0, ""Sb"": 1.0, ""S"": 3.0}",488.686,#708090,orthorhombic,{33},2.51e-10
Bouskaite,(MoO2)2O(SO3OH)2(H2O)2·2H2O,"{""Mo"": 2.0, ""O"": 17.0, ""S"": 2.0, ""H"": 10.0}",538.083,#FFFFFF,triclinic,{47},3.003e-09
Boussingaultite,(NH4)2Mg(SO4)2·6H2O,"{""N"": 2.0, ""H"": 20.0, ""Mg"": 1.0, ""S"": 2.0, ""O"": 14.0}",360.585,#FFFFFF,monoclinic,"{14,25,45,47,49,50,54}",1.189e-08
Bowieite,Rh2S3,"{""Rh"": 2.0, ""S"": 3.0}",302.0,#A9A9A9,orthorhombic,"{7,12,26,33,37,38}",7.561e-09
Bowlesite,PtSnS,"{""Pt"": 1.0, ""Sn"": 1.0, ""S"": 1.0}",345.85,#A9A9A9,orthorhombic,"{7,12,33,37}",4.909e-09
Boyleite,Zn(SO4)·4H2O,"{""Zn"": 1.0, ""S"": 1.0, ""O"": 8.0, ""H"": 8.0}",233.496,#FFFFFF,monoclinic,"{47,55}",3.761e-09
Braccoite,NaMn2+5[Si5O14(OH)](AsO3)(OH),"{""Na"": 1.0, ""Mn"": 5.0, ""Si"": 5.0, ""O"": 19.0, ""H"": 2.0, ""As"": 1.0}",819.024,#FFFFFF,unknown,"{32,47}",8.721e-09
Bracewellite,CrO(OH),"{""Cr"": 1.0, ""O"": 2.0, ""H"": 1.0}",85.002,#228B22,orthorhombic,{47},1.5015e-07
Brackebuschite,Pb2Mn3+(VO4)2(OH),"{""Pb"": 2.0, ""Mn"": 1.0, ""V"": 2.0, ""O"": 9.0, ""H"": 1.0}",716.221,#FFFFFF,monoclinic,"{22,47}",9.532e-09
Bradaczekite,NaCuCuCu2(AsO4)3,"{""Na"": 1.0, ""Cu"": 4.0, ""As"": 3.0, ""O"": 12.0}",693.928,#FFFFFF,monoclinic,{45},2.3585e-08
Bradleyite,Na3Mg(PO4)(CO3),"{""Na"": 3.0, ""Mg"": 1.0, ""P"": 1.0, ""O"": 7.0, ""C"": 1.0}",248.253,#FFFFFF,monoclinic,"{35,36,50}",8.477e-09
Braggite,PdPt3S4,"{""Pd"": 1.0, ""Pt"": 3.0, ""S"": 4.0}",819.9,#A9A9A9,tetragonal,"{12,26,33,37}",4.083e-09
Braithwaiteite,NaCu2+5(Sb5+Ti4+)O2(AsO4)4[AsO3(OH)]2·8H2O,"{""Na"": 1.0, ""Cu"": 5.0, ""Sb"": 1.0, ""Ti"": 1.0, ""O"": 34.0, ""As"": 6.0, ""H"": 18.0}",1521.989,#FFFFFF,triclinic,{47},4.5045e-08
Branchite,C20H34,"{""C"": 20.0, ""H"": 34.0}",274.492,#FFFFFF,triclinic,"{50,53}",1.221e-07
Brandaoite,BeAl2(PO4)2(OH)2(H2O)4·H2O,"{""Be"": 1.0, ""Al"": 2.0, ""P"": 2.0, ""O"": 15.0, ""H"": 12.0}",377.0052,#FFFFFF,triclinic,"{34,47}",1.6788e-08