name,formula,elements,density,color,crystal
Bassoite,SrV4+3O7·4H2O,"{""Sr"": 1.0, ""V"": 3.0, ""O"": 11.0, ""H"": 8.0}",424.499,#FFFFFF,monoclinic
Bastnasite-(Ce),Ce(CO3)F,"{""Ce"": 1.0, ""C"": 1.0, ""O"": 3.0, ""F"": 1.0}",219.126,#FFFFFF,hexagonal
Bastnasite-(La),La(CO3)F,"{""La"": 1.0, ""C"": 1.0, ""O"": 3.0, ""F"": 1.0}",217.916,#FFFFFF,hexagonal
Bastnasite-(Nd),Nd(CO3)F,"{""Nd"": 1.0, ""C"": 1.0, ""O"": 3.0, ""F"": 1.0}",223.246,#FFFFFF,hexagonal
Bastnasite-(Y),Y(CO3)F,"{""Y"": 1.0, ""C"": 1.0, ""O"": 3.0, ""F"": 1.0}",167.912,#FFFFFF,hexagonal
Batiferrite,BaTi2Fe3+8Fe2+2O19,"{""Ba"": 1.0, ""Ti"": 2.0, ""Fe"": 10.0, ""O"": 19.0}",1095.495,#556B2F,hexagonal
Batisite,Na2BaTi2O2(Si2O6)2,"{""Na"": 2.0, ""Ba"": 1.0, ""Ti"": 2.0, ""O"": 14.0, ""Si"": 4.0}",615.37,#FFFFFF,orthorhombic
Batoniite,Al8(SO4)5(OH)14(H2O)18·5H2O,"{""Al"": 8.0, ""S"": 5.0, ""O"": 57.0, ""H"": 60.0}",1348.579,#FFFFFF,triclinic
Baumhauerite,Pb12As16S36,"{""Pb"": 12.0, ""As"": 16.0, ""S"": 36.0}",4839.312,#708090,triclinic
Baumhauerite II,Pb3As4S9,"{""Pb"": 3.0, ""As"": 4.0, ""S"": 9.0}",1209.828,#708090,triclinic
Baumstarkite,Ag3Sb3S6,"{""Ag"": 3.0, ""Sb"": 3.0, ""S"": 6.0}",881.25,#A9A9A9,triclinic
Bauranoite,BaU2O7·4-5H2O,"{""Ba"": 1.0, ""U"": 2.0, ""O"": 12.0, ""H"": 10.0}",815.458,#FFFFFF,
Bavsiite,Ba2V2O2[Si4O12],"{""Ba"": 2.0, ""V"": 2.0, ""O"": 14.0, ""Si"": 4.0}",712.87,#FFFFFF,tetragonal
Bayanoboite-(Y),Ba2Y(CO3)2F3,"{""Ba"": 2.0, ""Y"": 1.0, ""C"": 2.0, ""O"": 6.0, ""F"": 3.0}",540.576,#FFFFFF,orthorhombic
Bayerite,Al(OH)3,"{""Al"": 1.0, ""O"": 3.0, ""H"": 3.0}",78.003,#FFFFFF,monoclinic
Bayldonite,Cu3PbO(AsO3OH)2(OH)2,"{""Cu"": 3.0, ""Pb"": 1.0, ""O"": 11.0, ""As"": 2.0, ""H"": 4.0}",727.703,#FFFFFF,monoclinic
Bayleyite,Mg2(UO2)(CO3)3·18H2O,"{""Mg"": 2.0, ""U"": 1.0, ""O"": 29.0, ""C"": 3.0, ""H"": 36.0}",822.932,#FFFFFF,monoclinic
Baylissite,K2Mg(CO3)2·4H2O,"{""K"": 2.0, ""Mg"": 1.0, ""C"": 2.0, ""O"": 10.0, ""H"": 8.0}",294.577,#FFFFFF,monoclinic
Bazhenovite,Ca8S5(S2O3)(OH)12·20H2O,"{""Ca"": 8.0, ""S"": 7.0, ""O"": 35.0, ""H"": 52.0}",1157.425,#FFFFFF,monoclinic
Bazirite,BaZrSi3O9,"{""Ba"": 1.0, ""Zr"": 1.0, ""Si"": 3.0, ""O"": 9.0}",456.8,#FFFFFF,hexagonal
Bearsite,Be2(AsO4)(OH)·4H2O,"{""Be"": 2.0, ""As"": 1.0, ""O"": 9.0, ""H"": 9.0}",246.0094,#FFFFFF,monoclinic
Bearthite,Ca2Al(PO4)2(OH),"{""Ca"": 2.0, ""Al"": 1.0, ""P"": 2.0, ""O"": 9.0, ""H"": 1.0}",314.085,#FFFFFF,monoclinic
Beaverite-(Cu),Pb(Fe3+2Cu)(SO4)2(OH)6,"{""Pb"": 1.0, ""Fe"": 2.0, ""Cu"": 1.0, ""S"": 2.0, ""O"": 14.0, ""H"": 6.0}",676.59,#556B2F,hexagonal
Beckettite,Ca2V6Al6O20,"{""Ca"": 2.0, ""V"": 6.0, ""Al"": 6.0, ""O"": 20.0}",867.68,#FFFFFF,triclinic
Becquerelite,Ca(UO2)6O4(OH)6·8H2O,"{""Ca"": 1.0, ""U"": 6.0, ""O"": 30.0, ""H"": 22.0}",1970.404,#FFFFFF,hexagonal
Beershevaite,CaFe3+3(PO4)3O,"{""Ca"": 1.0, ""Fe"": 3.0, ""P"": 3.0, ""O"": 13.0}",508.522,#556B2F,monoclinic
Behierite,Ta(BO4),"{""Ta"": 1.0, ""B"": 1.0, ""O"": 4.0}",255.756,#FFFFFF,tetragonal
Behoite,Be(OH)2,"{""Be"": 1.0, ""O"": 2.0, ""H"": 2.0}",43.0262,#FFFFFF,orthorhombic
Behounekite,U(SO4)2(H2O)4,"{""U"": 1.0, ""S"": 2.0, ""O"": 12.0, ""H"": 8.0}",502.202,#FFFFFF,orthorhombic
Belakovskiite,Na7(UO2)(SO4)4(SO3OH)(H2O)3,"{""Na"": 7.0, ""U"": 1.0, ""O"": 25.0, ""S"": 5.0, ""H"": 7.0}",966.291,#FFFFFF,triclinic
Belendorffite,Cu7Hg6,"{""Cu"": 7.0, ""Hg"": 6.0}",1648.362,#00BFFF,hexagonal
Belkovite,Ba3Nb6(Si2O7)2O12,"{""Ba"": 3.0, ""Nb"": 6.0, ""Si"": 4.0, ""O"": 26.0}",1497.74,#FFFFFF,hexagonal
Bellidoite,Cu2Se,"{""Cu"": 2.0, ""Se"": 1.0}",206.063,#00BFFF,tetragonal
Bellingerite,Cu3(IO3)6·2H2O,"{""Cu"": 3.0, ""I"": 6.0, ""O"": 20.0, ""H"": 4.0}",1276.05,#FFFFFF,triclinic
Belloite,Cu(OH)Cl,"{""Cu"": 1.0, ""O"": 1.0, ""H"": 1.0, ""Cl"": 1.0}",116.003,#FFFFFF,monoclinic
Belomarinaite,KNa(SO4),"{""K"": 1.0, ""Na"": 1.0, ""S"": 1.0, ""O"": 4.0}",158.144,#FFFFFF,hexagonal
Belovite-(Ce),NaCeSr3(PO4)3F,"{""Na"": 1.0, ""Ce"": 1.0, ""Sr"": 3.0, ""P"": 3.0, ""O"": 12.0, ""F"": 1.0}",729.878,#FFFFFF,hexagonal
Belovite-(La),NaLaSr3(PO4)3F,"{""Na"": 1.0, ""La"": 1.0, ""Sr"": 3.0, ""P"": 3.0, ""O"": 12.0, ""F"": 1.0}",728.668,#FFFFFF,hexagonal
Benauite,SrFe3+3(PO4)(PO3OH)(OH)6,"{""Sr"": 1.0, ""Fe"": 3.0, ""P"": 2.0, ""O"": 14.0, ""H"": 7.0}",548.145,#556B2F,hexagonal
Bendadaite,Fe2+Fe3+2(AsO4)2(OH)2·4H2O,"{""Fe"": 3.0, ""As"": 2.0, ""O"": 14.0, ""H"": 10.0}",551.445,#556B2F,monoclinic
Benitoite,BaTiSi3O9,"{""Ba"": 1.0, ""Ti"": 1.0, ""Si"": 3.0, ""O"": 9.0}",413.443,#FFFFFF,hexagonal
Benjaminite,Ag3Bi7S12,"{""Ag"": 3.0, ""Bi"": 7.0, ""S"": 12.0}",2171.19,#A9A9A9,monoclinic
Bennesherite,Ba2Fe2+Si2O7,"{""Ba"": 2.0, ""Fe"": 1.0, ""Si"": 2.0, ""O"": 7.0}",498.668,#556B2F,tetragonal
Benstonite,Ba6Ca6Mg(CO3)13,"{""Ba"": 6.0, ""Ca"": 6.0, ""Mg"": 1.0, ""C"": 13.0, ""O"": 39.0}",1868.857,#FFFFFF,hexagonal
Bentorite,Ca6Cr2(SO4)3(OH)12·26H2O,"{""Ca"": 6.0, ""Cr"": 2.0, ""S"": 3.0, ""O"": 50.0, ""H"": 64.0}",1305.102,#FFFFFF,hexagonal
Beraunite,Fe3+6(PO4)4O(OH)4·6H2O,"{""Fe"": 6.0, ""P"": 4.0, ""O"": 27.0, ""H"": 16.0}",907.067,#556B2F,monoclinic
Berborite,Be2(BO3)(OH)·H2O,"{""Be"": 2.0, ""B"": 1.0, ""O"": 5.0, ""H"": 3.0}",111.8534,#FFFFFF,hexagonal
Berdesinskiite,V3+2TiO5,"{""V"": 2.0, ""Ti"": 1.0, ""O"": 5.0}",229.746,#FFFFFF,monoclinic
Berezanskite,KTi2Li3Si12O30,"{""K"": 1.0, ""Ti"": 2.0, ""Li"": 3.0, ""Si"": 12.0, ""O"": 30.0}",972.642,#FFFFFF,hexagonal
Bergenite,Ca2Ba4(UO2)9O6(PO4)6·16H2O,"{""Ca"": 2.0, ""Ba"": 4.0, ""U"": 9.0, ""O"": 64.0, ""P"": 6.0, ""H"": 32.0}",4013.782,#FFFFFF,monoclinic
Bergslagite,CaBe(AsO4)(OH),"{""Ca"": 1.0, ""Be"": 1.0, ""As"": 1.0, ""O"": 5.0, ""H"": 1.0}",205.0152,#FFFFFF,monoclinic
Berlinite,Al(PO4),"{""Al"": 1.0, ""P"": 1.0, ""O"": 4.0}",121.952,#FFFFFF,hexagonal
Bernalite,Fe(OH)3,"{""Fe"": 1.0, ""O"": 3.0, ""H"": 3.0}",106.866,#8B4513,orthorhombic
Bernardevansite,Al2(Se4+O3)3·6H2O,"{""Al"": 2.0, ""Se"": 3.0, ""O"": 15.0, ""H"": 12.0}",542.958,#FFFFFF,monoclinic
Bernardite,TlAs5S8,"{""Tl"": 1.0, ""As"": 5.0, ""S"": 8.0}",835.47,#FFD700,monoclinic
Bernarlottiite,Pb12(As10Sb6)S36,"{""Pb"": 12.0, ""As"": 10.0, ""Sb"": 6.0, ""S"": 36.0}",5120.34,#708090,triclinic
Berndlehmannite,Cu(CrV)S4,"{""Cu"": 1.0, ""Cr"": 1.0, ""V"": 1.0, ""S"": 4.0}",294.724,#A9A9A9,cubic
Berryite,Cu3Ag2Pb3Bi7S16,"{""Cu"": 3.0, ""Ag"": 2.0, ""Pb"": 3.0, ""Bi"": 7.0, ""S"": 16.0}",3003.798,#708090,monoclinic
Berthierite,FeSb2S4,"{""Fe"": 1.0, ""Sb"": 2.0, ""S"": 4.0}",427.605,#DAA520,orthorhombic
Bertossaite,Li2CaAl4(PO4)4(OH)4,"{""Li"": 2.0, ""Ca"": 1.0, ""Al"": 4.0, ""P"": 4.0, ""O"": 20.0, ""H"": 4.0}",609.794,#FFFFFF,orthorhombic
Bertrandite,Be4Si2O7(OH)2,"{""Be"": 4.0, ""Si"": 2.0, ""O"": 9.0, ""H"": 2.0}",238.2258,#FFFFFF,orthorhombic
Beryl,Be3Al2Si6O18,"{""Be"": 3.0, ""Al"": 2.0, ""Si"": 6.0, ""O"": 18.0}",537.4926,#FFFFFF,hexagonal
Beryllite,Be3(SiO4)(OH)2·H2O,"{""Be"": 3.0, ""Si"": 1.0, ""O"": 7.0, ""H"": 4.0}",171.1466,#FFFFFF,
Beryllocordierite-Na,NaMg4(Al5Be)(AlSi5O18)2·2H2O,"{""Na"": 1.0, ""Mg"": 4.0, ""Al"": 7.0, ""Be"": 1.0, ""Si"": 10.0, ""O"": 38.0, ""H"": 4.0}",1210.9402,#FFFFFF,orthorhombic
Beryllonite,NaBe(PO4),"{""Na"": 1.0, ""Be"": 1.0, ""P"": 1.0, ""O"": 4.0}",126.9722,#FFFFFF,monoclinic
Berzeliite,(NaCa2)Mg2(AsO4)3,"{""Na"": 1.0, ""Ca"": 2.0, ""Mg"": 2.0, ""As"": 3.0, ""O"": 12.0}",568.51,#FFFFFF,cubic
Beshtauite,(NH4)2(UO2)(SO4)2·2H2O,"{""N"": 2.0, ""H"": 12.0, ""U"": 1.0, ""O"": 12.0, ""S"": 2.0}",534.248,#FFFFFF,monoclinic
Betpakdalite-CaCa,[Ca2(H2O)17Ca(H2O)6][Mo6+8As5+2Fe3+3O36(OH)],"{""Ca"": 3.0, ""H"": 47.0, ""O"": 60.0, ""Mo"": 8.0, ""As"": 2.0, ""Fe"": 3.0}",2212.529,#556B2F,monoclinic
Betpakdalite-CaMg,[Ca2(H2O)17Mg(H2O)6][Mo6+8As5+2Fe3+3O36(OH)],"{""Ca"": 2.0, ""H"": 47.0, ""O"": 60.0, ""Mg"": 1.0, ""Mo"": 8.0, ""As"": 2.0, ""Fe"": 3.0}",2196.756,#556B2F,monoclinic
Betpakdalite-FeFe,[Fe3+2(H2O)15(OH)2Fe3+(H2O)6][Mo8As2Fe3+3O37],"{""Fe"": 6.0, ""H"": 44.0, ""O"": 60.0, ""Mo"": 8.0, ""As"": 2.0}",2256.806,#556B2F,monoclinic
Betpakdalite-NaCa,[Na2(H2O)17Ca(H2O)6][Mo6+8As5+2Fe3+3O34(OH)3],"{""Na"": 2.0, ""H"": 49.0, ""O"": 60.0, ""Ca"": 1.0, ""Mo"": 8.0, ""As"": 2.0, ""Fe"": 3.0}",2180.369,#556B2F,monoclinic
Betpakdalite-NaNa,[Na2(H2O)16Na(H2O)6][Mo6+8As5+2Fe3+3O33(OH)4],"{""Na"": 3.0, ""H"": 48.0, ""O"": 59.0, ""Mo"": 8.0, ""As"": 2.0, ""Fe"": 3.0}",2146.274,#556B2F,monoclinic
Bettertonite,Al6(AsO4)3(OH)9(H2O)5·11H2O,"{""Al"": 6.0, ""As"": 3.0, ""O"": 37.0, ""H"": 41.0}",1019.949,#FFFFFF,monoclinic
Betzite,Na6Ca2(Al6Si6O24)Cl4,"{""Na"": 6.0, ""Ca"": 2.0, ""Al"": 6.0, ""Si"": 6.0, ""O"": 24.0, ""Cl"": 4.0}",1074.274,#FFFFFF,hexagonal
Beudantite,PbFe3+3(AsO4)(SO4)(OH)6,"{""Pb"": 1.0, ""Fe"": 3.0, ""As"": 1.0, ""O"": 14.0, ""S"": 1.0, ""H"": 6.0}",711.751,#556B2F,hexagonal
Beyerite,CaBi2O2(CO3)2,"{""Ca"": 1.0, ""Bi"": 2.0, ""O"": 8.0, ""C"": 2.0}",610.052,#FFFFFF,orthorhombic
Biagioniite,Tl2SbS2,"{""Tl"": 2.0, ""Sb"": 1.0, ""S"": 2.0}",594.64,#A9A9A9,monoclinic
Bianchiniite,Ba2(TiV)(As2O5)2OF,"{""Ba"": 2.0, ""Ti"": 1.0, ""V"": 1.0, ""As"": 4.0, ""O"": 11.0, ""F"": 1.0}",868.144,#FFFFFF,tetragonal
Bicapite,[KNa2Mg2(H2O)25][H2PV5+12O40(V5+O)2],"{""K"": 1.0, ""Na"": 2.0, ""Mg"": 2.0, ""H"": 52.0, ""O"": 67.0, ""P"": 1.0, ""V"": 14.0}",2002.199,#FFFFFF,tetragonal
Bicchulite,Ca2Al2SiO6(OH)2,"{""Ca"": 2.0, ""Al"": 2.0, ""Si"": 1.0, ""O"": 8.0, ""H"": 2.0}",292.213,#FFFFFF,cubic
Bideauxite,AgPb2F2Cl3,"{""Ag"": 1.0, ""Pb"": 2.0, ""F"": 2.0, ""Cl"": 3.0}",666.616,#FFFFFF,cubic
Bieberite,Co(SO4)·7H2O,"{""Co"": 1.0, ""S"": 1.0, ""O"": 11.0, ""H"": 14.0}",281.094,#FFFFFF,monoclinic
Biehlite,Sb3+2MoO6,"{""Sb"": 2.0, ""Mo"": 1.0, ""O"": 6.0}",435.464,#A9A9A9,monoclinic
Bigcreekite,BaSi2O5·4H2O,"{""Ba"": 1.0, ""Si"": 2.0, ""O"": 9.0, ""H"": 8.0}",345.555,#FFFFFF,orthorhombic
Bijvoetite-(Y),Y8(UO2)16O8(CO3)16(OH)8·39H2O,"{""Y"": 8.0, ""U"": 16.0, ""O"": 135.0, ""C"": 16.0, ""H"": 86.0}",6958.457,#FFFFFF,monoclinic
Bikitaite,LiAlSi2O6·H2O,"{""Li"": 1.0, ""Al"": 1.0, ""Si"": 2.0, ""O"": 7.0, ""H"": 2.0}",204.101,#FFFFFF,triclinic
Bilibinskite,PbAu3Cu2Te2,"{""Pb"": 1.0, ""Au"": 3.0, ""Cu"": 2.0, ""Te"": 2.0}",1180.402,#FFFFFF,cubic
Bilinite,Fe2+Fe3+2(SO4)4·22H2O,"{""Fe"": 3.0, ""S"": 4.0, ""O"": 38.0, ""H"": 44.0}",948.089,#556B2F,monoclinic
Billietite,Ba(UO2)6O4(OH)6·8H2O,"{""Ba"": 1.0, ""U"": 6.0, ""O"": 30.0, ""H"": 22.0}",2067.656,#FFFFFF,orthorhombic
Billingsleyite,Ag7AsS6,"{""Ag"": 7.0, ""As"": 1.0, ""S"": 6.0}",1022.372,#FFD700,cubic
Billwiseite,Sb3+5Nb3WO18,"{""Sb"": 5.0, ""Nb"": 3.0, ""W"": 1.0, ""O"": 18.0}",1359.34,#FFFFFF,monoclinic
Bimbowrieite,NaMgFe3+5(PO4)4(OH)6·2H2O,"{""Na"": 1.0, ""Mg"": 1.0, ""Fe"": 5.0, ""P"": 4.0, ""O"": 24.0, ""H"": 10.0}",844.472,#556B2F,monoclinic
Bindheimite,Pb2Sb5+2O7,"{""Pb"": 2.0, ""Sb"": 2.0, ""O"": 7.0}",769.913,#A9A9A9,cubic
Biphosphammite,(NH4)H2(PO4),"{""N"": 1.0, ""H"": 6.0, ""P"": 1.0, ""O"": 4.0}",115.025,#FFFFFF,tetragonal
Biraite-(Ce),Ce2Fe2+(Si2O7)(CO3),"{""Ce"": 2.0, ""Fe"": 1.0, ""Si"": 2.0, ""O"": 10.0, ""C"": 1.0}",564.256,#556B2F,monoclinic
Biraite-(La),La2Fe2+(CO3)(Si2O7),"{""La"": 2.0, ""Fe"": 1.0, ""C"": 1.0, ""O"": 10.0, ""Si"": 2.0}",561.836,#556B2F,monoclinic
Birchite,Cd2Cu2(PO4)2(SO4)·5H2O,"{""Cd"": 2.0, ""Cu"": 2.0, ""P"": 2.0, ""O"": 17.0, ""S"": 1.0, ""H"": 10.0}",727.983,#FFFFFF,orthorhombic
Biringuccite,Na2B5O8(OH)·H2O,"{""Na"": 2.0, ""B"": 5.0, ""O"": 10.0, ""H"": 3.0}",263.044,#FFFFFF,monoclinic
Bischofite,MgCl2·6H2O,"{""Mg"": 1.0, ""Cl"": 2.0, ""H"": 12.0, ""O"": 6.0}",203.295,#FFFFFF,monoclinic
Bismite,Bi2O3,"{""Bi"": 2.0, ""O"": 3.0}",465.957,#D2B48C,monoclinic
Bismoclite,BiOCl,"{""Bi"": 1.0, ""O"": 1.0, ""Cl"": 1.0}",260.429,#D2B48C,tetragonal
Bismuth,Bi,"{""Bi"": 1.0}",208.98,#D2B48C,hexagonal
Bismuthinite,Bi2S3,"{""Bi"": 2.0, ""S"": 3.0}",514.14,#A9A9A9,orthorhombic
Bismutite,Bi2O2(CO3),"{""Bi"": 2.0, ""O"": 5.0, ""C"": 1.0}",509.966,#D2B48C,orthorhombic
Bismutocolumbite,BiNbO4,"{""Bi"": 1.0, ""Nb"": 1.0, ""O"": 4.0}",365.882,#D2B48C,orthorhombic
Bismutoferrite,Fe3+2Bi(SiO4)2(OH),"{""Fe"": 2.0, ""Bi"": 1.0, ""Si"": 2.0, ""O"": 9.0, ""H"": 1.0}",521.839,#556B2F,monoclinic
Bismutohauchecornite,Ni9Bi2S8,"{""Ni"": 9.0, ""Bi"": 2.0, ""S"": 8.0}",1202.677,#A9A9A9,
Bismutotantalite,BiTaO4,"{""Bi"": 1.0, ""Ta"": 1.0, ""O"": 4.0}",453.926,#D2B48C,orthorhombic
Bityite,CaLiAl2(Si2BeAl)O10(OH)2,"{""Ca"": 1.0, ""Li"": 1.0, ""Al"": 3.0, ""Si"": 2.0, ""Be"": 1.0, ""O"": 12.0, ""H"": 2.0}",387.1502,#FFFFFF,monoclinic
Bixbyite-(Fe),Fe3+2O3,"{""Fe"": 2.0, ""O"": 3.0}",159.687,#8B4513,cubic
Blakeite,Fe3+2(Te4+O3)3 (?),"{""Fe"": 2.0, ""Te"": 3.0, ""O"": 9.0}",638.481,#8B4513,
Blatonite,(UO2)(CO3)·H2O,"{""U"": 1.0, ""O"": 6.0, ""C"": 1.0, ""H"": 2.0}",348.051,#FFFFFF,
Blixite,Pb8O5(OH)2Cl4,"{""Pb"": 8.0, ""O"": 7.0, ""H"": 2.0, ""Cl"": 4.0}",1913.409,#FFFFFF,monoclinic
Blodite,Na2Mg(SO4)2·4H2O,"{""Na"": 2.0, ""Mg"": 1.0, ""S"": 2.0, ""O"": 12.0, ""H"": 8.0}",334.457,#FFFFFF,monoclinic
Blossite,Cu2V5+2O7,"{""Cu"": 2.0, ""V"": 2.0, ""O"": 7.0}",340.969,#00BFFF,orthorhombic
Bluebellite,Cu6(IO3)(OH)10Cl,"{""Cu"": 6.0, ""I"": 1.0, ""O"": 13.0, ""H"": 10.0, ""Cl"": 1.0}",761.693,#FFFFFF,hexagonal
Bluelizardite,Na7(UO2)(SO4)4Cl(H2O)2,"{""Na"": 7.0, ""U"": 1.0, ""O"": 20.0, ""S"": 4.0, ""Cl"": 1.0, ""H"": 4.0}",886.662,#FFFFFF,monoclinic
Bluestreakite,K4Mg2(V4+2V5+8O28)·14H2O,"{""K"": 4.0, ""Mg"": 2.0, ""V"": 10.0, ""O"": 42.0, ""H"": 28.0}",1414.604,#FFFFFF,monoclinic
Bobcookite,NaAl(UO2)2(SO4)4·18H2O,"{""Na"": 1.0, ""Al"": 1.0, ""U"": 2.0, ""O"": 38.0, ""S"": 4.0, ""H"": 36.0}",1298.522,#FFFFFF,triclinic
Bobfinchite,Na[(UO2)8O3(OH)11]·10H2O,"{""Na"": 1.0, ""U"": 8.0, ""O"": 40.0, ""H"": 31.0}",2598.438,#FFFFFF,orthorhombic
Bobierrite,Mg3(PO4)2·8H2O,"{""Mg"": 3.0, ""P"": 2.0, ""O"": 16.0, ""H"": 16.0}",406.975,#FFFFFF,monoclinic
Bobjonesite,V4+O(SO4)·3H2O,"{""V"": 1.0, ""O"": 8.0, ""S"": 1.0, ""H"": 6.0}",217.042,#FFFFFF,monoclinic
Bobkingite,Cu5Cl2(OH)8·2H2O,"{""Cu"": 5.0, ""Cl"": 2.0, ""O"": 10.0, ""H"": 12.0}",560.716,#FFFFFF,monoclinic
Bodieite,Bi3+2(Te4+O3)2(SO4),"{""Bi"": 2.0, ""Te"": 2.0, ""O"": 10.0, ""S"": 1.0}",865.21,#FFFFFF,monoclinic
Boevskite,Pb4(TeO3)2(SO4)(S2O3),"{""Pb"": 4.0, ""Te"": 2.0, ""O"": 13.0, ""S"": 3.0}",1388.167,#FFFFFF,orthorhombic
Boggildite,Na2Sr2Al2(PO4)F9,"{""Na"": 2.0, ""Sr"": 2.0, ""Al"": 2.0, ""P"": 1.0, ""O"": 4.0, ""F"": 9.0}",541.136,#FFFFFF,monoclinic
Boggsite,Na3Ca8(Si77Al19)O192·70H2O,"{""Na"": 3.0, ""Ca"": 8.0, ""Si"": 77.0, ""Al"": 19.0, ""O"": 262.0, ""H"": 140.0}",7397.655,#FFFFFF,orthorhombic
Bogvadite,Na2Ba2SrAl4F20,"{""Na"": 2.0, ""Ba"": 2.0, ""Sr"": 1.0, ""Al"": 4.0, ""F"": 20.0}",896.148,#FFFFFF,monoclinic
Bohdanowiczite,AgBiSe2,"{""Ag"": 1.0, ""Bi"": 1.0, ""Se"": 2.0}",474.792,#C0C0C0,hexagonal
Bohmite,AlO(OH),"{""Al"": 1.0, ""O"": 2.0, ""H"": 1.0}",59.988,#FFFFFF,orthorhombic
Bojarite,Cu3(N3C2H2)3(OH)Cl2·6H2O,"{""Cu"": 3.0, ""N"": 9.0, ""C"": 6.0, ""H"": 19.0, ""O"": 7.0, ""Cl"": 2.0}",590.812,#FFFFFF,cubic
Boleite,KAg9Pb26Cu24Cl62(OH)48,"{""K"": 1.0, ""Ag"": 9.0, ""Pb"": 26.0, ""Cu"": 24.0, ""Cl"": 62.0, ""O"": 48.0, ""H"": 48.0}",10936.468,#FFFFFF,cubic
Bolivarite,Al2(PO4)(OH)3·4H2O,"{""Al"": 2.0, ""P"": 1.0, ""O"": 11.0, ""H"": 11.0}",272.015,#FFFFFF,
Bonaccordite,Ni2Fe3+O2(BO3),"{""Ni"": 2.0, ""Fe"": 1.0, ""O"": 5.0, ""B"": 1.0}",264.036,#556B2F,orthorhombic
Bonaccorsiite,KK2Na3(Al6Si36)O84,"{""K"": 3.0, ""Na"": 3.0, ""Al"": 6.0, ""Si"": 36.0, ""O"": 84.0}",2703.132,#FFFFFF,hexagonal
Bonacinaite,Sc(AsO4)·2H2O,"{""Sc"": 1.0, ""As"": 1.0, ""O"": 6.0, ""H"": 4.0}",219.904,#FFFFFF,triclinic
Bonattite,Cu(SO4)·3H2O,"{""Cu"": 1.0, ""S"": 1.0, ""O"": 7.0, ""H"": 6.0}",213.647,#FFFFFF,monoclinic
Bonazziite,As4S4,"{""As"": 4.0, ""S"": 4.0}",427.928,#FFD700,monoclinic
Bonshtedtite,Na3Fe2+(PO4)(CO3),"{""Na"": 3.0, ""Fe"": 1.0, ""P"": 1.0, ""O"": 7.0, ""C"": 1.0}",279.793,#556B2F,monoclinic
Boojumite,Pb8O4(OH)2(S2O3)3,"{""Pb"": 8.0, ""O"": 15.0, ""H"": 2.0, ""S"": 6.0}",2091.961,#FFFFFF,orthorhombic
Boothite,Cu(SO4)·7H2O,"{""Cu"": 1.0, ""S"": 1.0, ""O"": 11.0, ""H"": 14.0}",285.707,#FFFFFF,monoclinic
Boracite,Mg3B7O13Cl,"{""Mg"": 3.0, ""B"": 7.0, ""O"": 13.0, ""Cl"": 1.0}",392.022,#FFFFFF,cubic
Boralsilite,Al16B6O30(Si2O7),"{""Al"": 16.0, ""B"": 6.0, ""O"": 37.0, ""Si"": 2.0}",1144.705,#FFFFFF,monoclinic
Borax,Na2B4O5(OH)4·8H2O,"{""Na"": 2.0, ""B"": 4.0, ""O"": 17.0, ""H"": 20.0}",381.363,#FFFFFF,monoclinic
Borcarite,Ca4MgB4O6(CO3)2(OH)6,"{""Ca"": 4.0, ""Mg"": 1.0, ""B"": 4.0, ""O"": 18.0, ""C"": 2.0, ""H"": 6.0}",545.909,#FFFFFF,monoclinic
Bornhardtite,Co2+Co3+2Se4,"{""Co"": 3.0, ""Se"": 4.0}",492.683,#4169E1,cubic
Bornite,Cu5FeS4,"{""Cu"": 5.0, ""Fe"": 1.0, ""S"": 4.0}",501.815,#DAA520,hexagonal
Borocookeite,LiAl4(Si3B)O10(OH)8,"{""Li"": 1.0, ""Al"": 4.0, ""Si"": 3.0, ""B"": 1.0, ""O"": 18.0, ""H"": 8.0}",505.979,#FFFFFF,monoclinic
Boromullite,Al9BSi2O19,"{""Al"": 9.0, ""B"": 1.0, ""Si"": 2.0, ""O"": 19.0}",613.799,#FFFFFF,orthorhombic
Boromuscovite,KAl2(Si3B)O10(OH)2,"{""K"": 1.0, ""Al"": 2.0, ""Si"": 3.0, ""B"": 1.0, ""O"": 12.0, ""H"": 2.0}",382.131,#FFFFFF,monoclinic
Borovskite,Pd3SbTe4,"{""Pd"": 3.0, ""Sb"": 1.0, ""Te"": 4.0}",951.42,#A9A9A9,cubic
Borzeckiite,Pb(UO2)3(SeO3)2O2·3H2O,"{""Pb"": 1.0, ""U"": 3.0, ""O"": 17.0, ""Se"": 2.0, ""H"": 6.0}",1357.263,#FFFFFF,orthorhombic
Boscardinite,TlPb4(Sb7As2)Σ=9S18,"{""Tl"": 1.0, ""Pb"": 4.0, ""Sb"": 63.0, ""As"": 18.0, ""S"": 18.0}",10629.736,#708090,triclinic
Bosiite,NaFe3+3(Al4Mg2)(Si6O18)(BO3)3(OH)3O,"{""Na"": 1.0, ""Fe"": 3.0, ""Al"": 4.0, ""Mg"": 2.0, ""Si"": 6.0, ""O"": 31.0, ""B"": 3.0, ""H"": 3.0}",1046.996,#556B2F,hexagonal
Botallackite,Cu2Cl(OH)3,"{""Cu"": 2.0, ""Cl"": 1.0, ""O"": 3.0, ""H"": 3.0}",213.563,#FFFFFF,monoclinic
Botryogen,MgFe3+(SO4)2(OH)·7H2O,"{""Mg"": 1.0, ""Fe"": 1.0, ""S"": 2.0, ""O"": 16.0, ""H"": 15.0}",415.374,#556B2F,monoclinic
Bottinoite,NiSb5+2(OH)12·6H2O,"{""Ni"": 1.0, ""Sb"": 2.0, ""O"": 18.0, ""H"": 24.0}",614.387,#FFFFFF,hexagonal
Botuobinskite,SrFe2+(Ti4+12Cr3+6)Mg2[O36(OH)2],"{""Sr"": 1.0, ""Fe"": 1.0, ""Ti"": 12.0, ""Cr"": 6.0, ""Mg"": 2.0, ""O"": 38.0, ""H"": 2.0}",1688.433,#556B2F,hexagonal
Boulangerite,Pb5Sb4S11,"{""Pb"": 5.0, ""Sb"": 4.0, ""S"": 11.0}",1875.7,#708090,monoclinic
Bounahasite,Cu1+Cu2+2(OH)3Cl2,"{""Cu"": 3.0, ""O"": 3.0, ""H"": 3.0, ""Cl"": 2.0}",312.559,#FFFFFF,monoclinic
Bournonite,CuPbSbS3,"{""Cu"": 1.0, ""Pb"": 1.0, ""Sb"": 1.0, ""S"": 3.0}",488.686,#708090,orthorhombic
Bouskaite,(MoO2)2O(SO3OH)2(H2O)2·2H2O,"{""Mo"": 2.0, ""O"": 17.0, ""S"": 2.0, ""H"": 10.0}",538.083,#FFFFFF,triclinic
Boussingaultite,(NH4)2Mg(SO4)2·6H2O,"{""N"": 2.0, ""H"": 20.0, ""Mg"": 1.0, ""S"": 2.0, ""O"": 14.0}",360.585,#FFFFFF,monoclinic
Bowieite,Rh2S3,"{""Rh"": 2.0, ""S"": 3.0}",302.0,#A9A9A9,orthorhombic
Bracewellite,CrO(OH),"{""Cr"": 1.0, ""O"": 2.0, ""H"": 1.0}",85.002,#228B22,orthorhombic
Bradaczekite,NaCuCuCu2(AsO4)3,"{""Na"": 1.0, ""Cu"": 4.0, ""As"": 3.0, ""O"": 12.0}",693.928,#FFFFFF,monoclinic
Bradleyite,Na3Mg(PO4)(CO3),"{""Na"": 3.0, ""Mg"": 1.0, ""P"": 1.0, ""O"": 7.0, ""C"": 1.0}",248.253,#FFFFFF,monoclinic
Braggite,PdPt3S4,"{""Pd"": 1.0, ""Pt"": 3.0, ""S"": 4.0}",819.9,#A9A9A9,tetragonal
Braithwaiteite,NaCu2+5(Sb5+Ti4+)O2(AsO4)4[AsO3(OH)]2·8H2O,"{""Na"": 1.0, ""Cu"": 5.0, ""Sb"": 1.0, ""Ti"": 1.0, ""O"": 34.0, ""As"": 6.0, ""H"": 18.0}",1521.989,#FFFFFF,triclinic
Branchite,C20H34,"{""C"": 20.0, ""H"": 34.0}",274.492,#FFFFFF,triclinic
Brandaoite,BeAl2(PO4)2(OH)2(H2O)4·H2O,"{""Be"": 1.0, ""Al"": 2.0, ""P"": 2.0, ""O"": 15.0, ""H"": 12.0}",377.0052,#FFFFFF,triclinic
Brandholzite,MgSb2(OH)12·6H2O,"{""Mg"": 1.0, ""Sb"": 2.0, ""O"": 18.0, ""H"": 24.0}",579.999,#FFFFFF,hexagonal
Brannerite,UTi2O6,"{""U"": 1.0, ""Ti"": 2.0, ""O"": 6.0}",429.758,#ADFF2F,monoclinic
Brassite,Mg(AsO3OH)·4H2O,"{""Mg"": 1.0, ""As"": 1.0, ""O"": 8.0, ""H"": 9.0}",236.291,#FFFFFF,orthorhombic
Braunerite,K2Ca(UO2)(CO3)3·6H2O,"{""K"": 2.0, ""Ca"": 1.0, ""U"": 1.0, ""O"": 17.0, ""C"": 3.0, ""H"": 12.0}",676.416,#FFFFFF,monoclinic
Brazilianite,NaAl3(PO4)2(OH)4,"{""Na"": 1.0, ""Al"": 3.0, ""P"": 2.0, ""O"": 12.0, ""H"": 4.0}",361.904,#FFFFFF,monoclinic