name,formula,elements,density,color,crystal
Chalconatronite,Na2Cu(CO3)2·3H2O,"{""Na"": 2.0, ""Cu"": 1.0, ""C"": 2.0, ""O"": 9.0, ""H"": 6.0}",283.587,#FFFFFF,monoclinic
Chalcophyllite,Cu18Al2(AsO4)4(SO4)3(OH)24·36H2O,"{""Cu"": 18.0, ""Al"": 2.0, ""As"": 4.0, ""O"": 88.0, ""S"": 3.0, ""H"": 96.0}",3098.34,#FFFFFF,hexagonal
Chalcopyrite,CuFeS2,"{""Cu"": 1.0, ""Fe"": 1.0, ""S"": 2.0}",183.511,#DAA520,cubic
Chalcosiderite,CuFe3+6(PO4)4(OH)8·4H2O,"{""Cu"": 1.0, ""Fe"": 6.0, ""P"": 4.0, ""O"": 28.0, ""H"": 16.0}",986.612,#556B2F,triclinic
Chalcostibite,CuSbS2,"{""Cu"": 1.0, ""Sb"": 1.0, ""S"": 2.0}",249.426,#A9A9A9,orthorhombic
Challacolloite,KPb2Cl5,"{""K"": 1.0, ""Pb"": 2.0, ""Cl"": 5.0}",630.748,#FFFFFF,monoclinic
Changbaiite,PbNb2O6,"{""Pb"": 1.0, ""Nb"": 2.0, ""O"": 6.0}",489.006,#FFFFFF,hexagonal
Changchengite,IrBiS,"{""Ir"": 1.0, ""Bi"": 1.0, ""S"": 1.0}",433.26,#A9A9A9,cubic
Chantalite,CaAl2(SiO4)(OH)4,"{""Ca"": 1.0, ""Al"": 2.0, ""Si"": 1.0, ""O"": 8.0, ""H"": 4.0}",254.151,#FFFFFF,tetragonal
Chaoite,C,"{""C"": 1.0}",12.011,#FFFFFF,hexagonal
Chapmanite,Fe3+2Sb3+(Si2O5)O3(OH),"{""Fe"": 2.0, ""Sb"": 1.0, ""Si"": 2.0, ""O"": 9.0, ""H"": 1.0}",434.619,#556B2F,monoclinic
Charleshatchettite,CaNb4O10(OH)2·8H2O,"{""Ca"": 1.0, ""Nb"": 4.0, ""O"": 20.0, ""H"": 18.0}",749.826,#FFFFFF,monoclinic
Chayesite,KMg4Fe3+[Si12O30],"{""K"": 1.0, ""Mg"": 4.0, ""Fe"": 1.0, ""Si"": 12.0, ""O"": 30.0}",1009.153,#556B2F,hexagonal
Chegemite,Ca7(SiO4)3(OH)2,"{""Ca"": 7.0, ""Si"": 3.0, ""O"": 14.0, ""H"": 2.0}",590.803,#FFFFFF,orthorhombic
Chekhovichite,Bi3+2Te4+4O11,"{""Bi"": 2.0, ""Te"": 4.0, ""O"": 11.0}",1104.349,#D2B48C,monoclinic
Chelkarite,CaMgB2O4Cl2·7H2O (?),"{""Ca"": 1.0, ""Mg"": 1.0, ""B"": 2.0, ""O"": 11.0, ""Cl"": 2.0, ""H"": 14.0}",347.004,#FFFFFF,orthorhombic
Chenevixite,CuFe3+(AsO4)(OH)2,"{""Cu"": 1.0, ""Fe"": 1.0, ""As"": 1.0, ""O"": 6.0, ""H"": 2.0}",292.323,#556B2F,monoclinic
Chengdeite,Ir3Fe,"{""Ir"": 3.0, ""Fe"": 1.0}",632.505,#8B4513,cubic
Chenguodaite,Ag9FeTe2S4,"{""Ag"": 9.0, ""Fe"": 1.0, ""Te"": 2.0, ""S"": 4.0}",1410.115,#DAA520,orthorhombic
Chenite,CuPb4(SO4)2(OH)6,"{""Cu"": 1.0, ""Pb"": 4.0, ""S"": 2.0, ""O"": 14.0, ""H"": 6.0}",1186.5,#FFFFFF,triclinic
Chenmingite,FeCr2O4,"{""Fe"": 1.0, ""Cr"": 2.0, ""O"": 4.0}",223.833,#228B22,orthorhombic
Chenowethite,Mg(H2O)6[(UO2)2(SO4)2(OH)2]·5H2O,"{""Mg"": 1.0, ""H"": 24.0, ""O"": 25.0, ""U"": 2.0, ""S"": 2.0}",988.652,#FFFFFF,orthorhombic
Cheralite,CaTh(PO4)2,"{""Ca"": 1.0, ""Th"": 1.0, ""P"": 2.0, ""O"": 8.0}",462.058,#FFFFFF,monoclinic
Cherepanovite,RhAs,"{""Rh"": 1.0, ""As"": 1.0}",177.832,#808080,orthorhombic
Chernikovite,(H3O)(UO2)(PO4)·3H2O,"{""H"": 9.0, ""O"": 10.0, ""U"": 1.0, ""P"": 1.0}",438.066,#FFFFFF,tetragonal
Chernovite-(Y),Y(AsO4),"{""Y"": 1.0, ""As"": 1.0, ""O"": 4.0}",227.824,#808080,tetragonal
Chernykhite,BaV2(Si2Al2)O10(OH)2,"{""Ba"": 1.0, ""V"": 2.0, ""Si"": 2.0, ""Al"": 2.0, ""O"": 12.0, ""H"": 2.0}",543.352,#FFFFFF,monoclinic
Chervetite,Pb2V5+2O7,"{""Pb"": 2.0, ""V"": 2.0, ""O"": 7.0}",628.277,#FFFFFF,monoclinic
Chesnokovite,Na2SiO2(OH)2·8H2O,"{""Na"": 2.0, ""Si"": 1.0, ""O"": 12.0, ""H"": 18.0}",284.197,#FFFFFF,orthorhombic
Chessexite,Na4Ca2Mg3Al8(SiO4)2(SO4)10(OH)10·40H2O,"{""Na"": 4.0, ""Ca"": 2.0, ""Mg"": 3.0, ""Al"": 8.0, ""Si"": 2.0, ""O"": 98.0, ""S"": 10.0, ""H"": 90.0}",2496.279,#FFFFFF,orthorhombic
Chesterite,Mg17Si20O54(OH)6,"{""Mg"": 17.0, ""Si"": 20.0, ""O"": 60.0, ""H"": 6.0}",1940.873,#FFFFFF,orthorhombic
Chihmingite,NiAl2O4,"{""Ni"": 1.0, ""Al"": 2.0, ""O"": 4.0}",176.653,#7FFF00,cubic
Chihuahuaite,FeAl12O19,"{""Fe"": 1.0, ""Al"": 12.0, ""O"": 19.0}",683.61,#8B4513,hexagonal
Childrenite,Fe2+Al(PO4)(OH)2·H2O,"{""Fe"": 1.0, ""Al"": 1.0, ""P"": 1.0, ""O"": 7.0, ""H"": 4.0}",229.826,#556B2F,orthorhombic
Chinchorroite,Na2Mg5(As2O7)2(AsO3OH)2(H2O)10,"{""Na"": 2.0, ""Mg"": 5.0, ""As"": 6.0, ""O"": 32.0, ""H"": 22.0}",1151.181,#FFFFFF,triclinic
Chinleite-(Ce),NaCe(SO4)2(H2O),"{""Na"": 1.0, ""Ce"": 1.0, ""S"": 2.0, ""O"": 9.0, ""H"": 2.0}",373.237,#FFFFFF,hexagonal
Chinleite-(Nd),NaNd(SO4)2·H2O,"{""Na"": 1.0, ""Nd"": 1.0, ""S"": 2.0, ""O"": 9.0, ""H"": 2.0}",377.357,#FFFFFF,hexagonal
Chinleite-(Y),NaY(SO4)2·H2O,"{""Na"": 1.0, ""Y"": 1.0, ""S"": 2.0, ""O"": 9.0, ""H"": 2.0}",322.023,#FFFFFF,hexagonal
Chinnerite,[Mg(H2O)6]Na(H2O)2Al3(PO4)2F6,"{""Mg"": 1.0, ""H"": 16.0, ""O"": 16.0, ""Na"": 1.0, ""Al"": 3.0, ""P"": 2.0, ""F"": 6.0}",576.289,#FFFFFF,monoclinic
Chiolite,Na5Al3F14,"{""Na"": 5.0, ""Al"": 3.0, ""F"": 14.0}",461.868,#FFFFFF,tetragonal
Chiyokoite,Ca3Si(CO3)[B(OH)4]O(OH)5·12H2O,"{""Ca"": 3.0, ""Si"": 1.0, ""C"": 1.0, ""O"": 25.0, ""B"": 1.0, ""H"": 33.0}",604.379,#FFFFFF,hexagonal
Chkalovite,Na2BeSi2O6,"{""Na"": 2.0, ""Be"": 1.0, ""Si"": 2.0, ""O"": 6.0}",207.1562,#FFFFFF,orthorhombic
Chladniite,Na3CaMg11(PO4)9,"{""Na"": 3.0, ""Ca"": 1.0, ""Mg"": 11.0, ""P"": 9.0, ""O"": 36.0}",1231.133,#FFFFFF,hexagonal
Chloraluminite,AlCl3·6H2O,"{""Al"": 1.0, ""Cl"": 3.0, ""H"": 12.0, ""O"": 6.0}",241.422,#FFFFFF,hexagonal
Chlorapatite,Ca5(PO4)3Cl,"{""Ca"": 5.0, ""P"": 3.0, ""O"": 12.0, ""Cl"": 1.0}",520.75,#FFFFFF,hexagonal
Chlorargyrite,AgCl,"{""Ag"": 1.0, ""Cl"": 1.0}",143.32,#C0C0C0,cubic
Chlorbartonite,K6Fe24S26Cl,"{""K"": 6.0, ""Fe"": 24.0, ""S"": 26.0, ""Cl"": 1.0}",2443.878,#DAA520,tetragonal
Chloritoid,Fe2+Al2O(SiO4)(OH)2,"{""Fe"": 1.0, ""Al"": 2.0, ""O"": 7.0, ""Si"": 1.0, ""H"": 2.0}",251.903,#556B2F,triclinic
Chlorkyuygenite,Ca12Al14O32[(H2O)4Cl2],"{""Ca"": 12.0, ""Al"": 14.0, ""O"": 36.0, ""H"": 8.0, ""Cl"": 2.0}",1513.612,#FFFFFF,cubic
Chlormagaluminite,Mg4Al2(OH)12Cl2(H2O)2,"{""Mg"": 4.0, ""Al"": 2.0, ""O"": 14.0, ""H"": 16.0, ""Cl"": 2.0}",462.198,#FFFFFF,hexagonal
Chlorocalcite,KCaCl3,"{""K"": 1.0, ""Ca"": 1.0, ""Cl"": 3.0}",185.526,#FFFFFF,
Chloromagnesite,MgCl2,"{""Mg"": 1.0, ""Cl"": 2.0}",95.205,#FFFFFF,hexagonal
Chloromenite,Cu9O2(Se4+O3)4Cl6,"{""Cu"": 9.0, ""O"": 14.0, ""Se"": 4.0, ""Cl"": 6.0}",1324.484,#FFFFFF,monoclinic
Chlorothionite,K2Cu(SO4)Cl2,"{""K"": 2.0, ""Cu"": 1.0, ""S"": 1.0, ""O"": 4.0, ""Cl"": 2.0}",308.698,#FFFFFF,orthorhombic
Chloroxiphite,Pb3CuO2Cl2(OH)2,"{""Pb"": 3.0, ""Cu"": 1.0, ""O"": 4.0, ""Cl"": 2.0, ""H"": 2.0}",822.058,#FFFFFF,monoclinic
Chondrodite,Mg5(SiO4)2F2,"{""Mg"": 5.0, ""Si"": 2.0, ""O"": 8.0, ""F"": 2.0}",343.683,#FFFFFF,monoclinic
Chongite,Ca3Mg2(AsO4)2(AsO3OH)2·4H2O,"{""Ca"": 3.0, ""Mg"": 2.0, ""As"": 4.0, ""O"": 20.0, ""H"": 10.0}",798.592,#FFFFFF,monoclinic
Chopinite,Mg3(PO4)2,"{""Mg"": 3.0, ""P"": 2.0, ""O"": 8.0}",262.855,#FFFFFF,monoclinic
Chrisstanleyite,Ag2Pd3Se4,"{""Ag"": 2.0, ""Pd"": 3.0, ""Se"": 4.0}",850.884,#C0C0C0,monoclinic
Christite,TlHgAsS3,"{""Tl"": 1.0, ""Hg"": 1.0, ""As"": 1.0, ""S"": 3.0}",576.072,#FFD700,monoclinic
Chromatite,CaCr6+O4,"{""Ca"": 1.0, ""Cr"": 1.0, ""O"": 4.0}",156.07,#228B22,tetragonal
Chrombismite,Bi16CrO27,"{""Bi"": 16.0, ""Cr"": 1.0, ""O"": 27.0}",3827.649,#228B22,tetragonal
Chromceladonite,KMgCr(Si4O10)(OH)2,"{""K"": 1.0, ""Mg"": 1.0, ""Cr"": 1.0, ""Si"": 4.0, ""O"": 12.0, ""H"": 2.0}",421.743,#FFFFFF,monoclinic
Chromio-pargasite,NaCa2(Mg4Cr)(Si6Al2)O22(OH)2,"{""Na"": 1.0, ""Ca"": 2.0, ""Mg"": 4.0, ""Cr"": 1.0, ""Si"": 6.0, ""Al"": 2.0, ""O"": 24.0, ""H"": 2.0}",860.828,#FFFFFF,monoclinic
Chromite,Fe2+Cr2O4,"{""Fe"": 1.0, ""Cr"": 2.0, ""O"": 4.0}",223.833,#228B22,cubic
Chromium,Cr,"{""Cr"": 1.0}",51.996,#228B22,hexagonal
Chromium-dravite,NaMg3Cr6(Si6O18)(BO3)3(OH)3(OH),"{""Na"": 1.0, ""Mg"": 3.0, ""Cr"": 6.0, ""Si"": 6.0, ""O"": 31.0, ""B"": 3.0, ""H"": 4.0}",1108.822,#FFFFFF,hexagonal
Chromo-alumino-povondraite,NaCr3(Al4Mg2)(Si6O18)(BO3)3(OH)3O,"{""Na"": 1.0, ""Cr"": 3.0, ""Al"": 4.0, ""Mg"": 2.0, ""Si"": 6.0, ""O"": 31.0, ""B"": 3.0, ""H"": 3.0}",1035.449,#FFFFFF,hexagonal
Chromphyllite,KCr2(AlSi3O10)(OH)2,"{""K"": 1.0, ""Cr"": 2.0, ""Al"": 1.0, ""Si"": 3.0, ""O"": 12.0, ""H"": 2.0}",448.331,#FFFFFF,monoclinic
Chromschieffelinite,Pb10Te6+6O20(OH)14(CrO4)(H2O)5,"{""Pb"": 10.0, ""Te"": 6.0, ""O"": 43.0, ""H"": 24.0, ""Cr"": 1.0}",3601.745,#FFFFFF,orthorhombic
Chromviskontite,Pb5Cu2(CrO4)3(SeO3)(OH)6,"{""Pb"": 5.0, ""Cu"": 2.0, ""Cr"": 3.0, ""O"": 21.0, ""Se"": 1.0, ""H"": 6.0}",1740.078,#FFFFFF,orthorhombic
Chrysoberyl,BeAl2O4,"{""Be"": 1.0, ""Al"": 2.0, ""O"": 4.0}",126.9722,#FFFFFF,orthorhombic
Chrysothallite,K6Cu6Tl3+Cl17(OH)4·H2O,"{""K"": 6.0, ""Cu"": 6.0, ""Tl"": 1.0, ""Cl"": 17.0, ""O"": 5.0, ""H"": 6.0}",1508.937,#FFFFFF,tetragonal
Chrysotile,Mg3Si2O5(OH)4,"{""Mg"": 3.0, ""Si"": 2.0, ""O"": 9.0, ""H"": 4.0}",277.108,#FFFFFF,monoclinic
Chudobaite,Mg5(AsO4)2(AsO3OH)2·10H2O,"{""Mg"": 5.0, ""As"": 4.0, ""O"": 26.0, ""H"": 22.0}",859.363,#FFFFFF,triclinic
Chukanovite,Fe2(CO3)(OH)2,"{""Fe"": 2.0, ""C"": 1.0, ""O"": 5.0, ""H"": 2.0}",205.712,#556B2F,monoclinic
Chukhrovite-(Ce),Ca3CeAl2(SO4)F13·12H2O,"{""Ca"": 3.0, ""Ce"": 1.0, ""Al"": 2.0, ""S"": 1.0, ""O"": 16.0, ""F"": 13.0, ""H"": 24.0}",873.528,#FFFFFF,cubic
Chukhrovite-(Nd),Ca3NdAl2(SO4)F13·12H2O,"{""Ca"": 3.0, ""Nd"": 1.0, ""Al"": 2.0, ""S"": 1.0, ""O"": 16.0, ""F"": 13.0, ""H"": 24.0}",877.648,#FFFFFF,cubic
Chukhrovite-(Y),Ca3YAl2(SO4)F13·12H2O,"{""Ca"": 3.0, ""Y"": 1.0, ""Al"": 2.0, ""S"": 1.0, ""O"": 16.0, ""F"": 13.0, ""H"": 24.0}",822.314,#FFFFFF,cubic
Chukotkaite,AgPb7Sb5S15,"{""Ag"": 1.0, ""Pb"": 7.0, ""Sb"": 5.0, ""S"": 15.0}",2647.97,#708090,
Churchite-(Y),Y(PO4)·2H2O,"{""Y"": 1.0, ""P"": 1.0, ""O"": 6.0, ""H"": 4.0}",219.906,#FFFFFF,monoclinic
Chursinite,Hg1+Hg2+(AsO4),"{""Hg"": 2.0, ""As"": 1.0, ""O"": 4.0}",540.098,#808080,monoclinic
Cinnabar,HgS,"{""Hg"": 1.0, ""S"": 1.0}",232.65,#A9A9A9,hexagonal
Cirrolite,Ca3Al2(PO4)3(OH)3,"{""Ca"": 3.0, ""Al"": 2.0, ""P"": 3.0, ""O"": 15.0, ""H"": 3.0}",510.129,#FFFFFF,
Clairite,(NH4)2Fe3+3(SO4)4(OH)3·3H2O,"{""N"": 2.0, ""H"": 17.0, ""Fe"": 3.0, ""S"": 4.0, ""O"": 22.0}",692.903,#556B2F,triclinic
Claringbullite,Cu2+4FCl(OH)6,"{""Cu"": 4.0, ""F"": 1.0, ""Cl"": 1.0, ""O"": 6.0, ""H"": 6.0}",410.674,#FFFFFF,hexagonal
Claudetite,As2O3,"{""As"": 2.0, ""O"": 3.0}",197.841,#808080,monoclinic
Clausthalite,PbSe,"{""Pb"": 1.0, ""Se"": 1.0}",286.171,#FFFFFF,cubic
Clearcreekite,Hg1+3(CO3)(OH)·2H2O,"{""Hg"": 3.0, ""C"": 1.0, ""O"": 6.0, ""H"": 5.0}",714.815,#FFFFFF,monoclinic
Cliffordite,UTe4+3O9,"{""U"": 1.0, ""Te"": 3.0, ""O"": 9.0}",764.821,#ADFF2F,
Clinoatacamite,Cu2Cl(OH)3,"{""Cu"": 2.0, ""Cl"": 1.0, ""O"": 3.0, ""H"": 3.0}",213.563,#FFFFFF,monoclinic
Clinobehoite,Be(OH)2,"{""Be"": 1.0, ""O"": 2.0, ""H"": 2.0}",43.0262,#FFFFFF,monoclinic
Clinobisvanite,Bi(VO4),"{""Bi"": 1.0, ""V"": 1.0, ""O"": 4.0}",323.918,#D2B48C,monoclinic
Clinocervantite,Sb3+Sb5+O4,"{""Sb"": 2.0, ""O"": 4.0}",307.516,#A9A9A9,monoclinic
Clinochalcomenite,CuSe4+O3(H2O)2,"{""Cu"": 1.0, ""Se"": 1.0, ""O"": 5.0, ""H"": 4.0}",226.544,#FFFFFF,monoclinic
Clinochlore,Mg5Al(AlSi3O10)(OH)8,"{""Mg"": 5.0, ""Al"": 2.0, ""Si"": 3.0, ""O"": 18.0, ""H"": 8.0}",555.79,#FFFFFF,triclinic
Clinoclase,Cu3(AsO4)(OH)3,"{""Cu"": 3.0, ""As"": 1.0, ""O"": 7.0, ""H"": 3.0}",380.577,#FFFFFF,monoclinic
Clinoenstatite,Mg2Si2O6,"{""Mg"": 2.0, ""Si"": 2.0, ""O"": 6.0}",200.774,#FFFFFF,monoclinic
Clinofergusonite-(Ce),CeNbO4,"{""Ce"": 1.0, ""Nb"": 1.0, ""O"": 4.0}",297.022,#FFFFFF,monoclinic
Clinofergusonite-(Nd),NdNbO4,"{""Nd"": 1.0, ""Nb"": 1.0, ""O"": 4.0}",301.142,#FFFFFF,monoclinic
Clinofergusonite-(Y),YNbO4,"{""Y"": 1.0, ""Nb"": 1.0, ""O"": 4.0}",245.808,#FFFFFF,monoclinic
Clinoferrosilite,Fe2+2Si2O6,"{""Fe"": 2.0, ""Si"": 2.0, ""O"": 6.0}",263.854,#8B4513,monoclinic
Clinohumite,Mg9(SiO4)4F2,"{""Mg"": 9.0, ""Si"": 4.0, ""O"": 16.0, ""F"": 2.0}",625.065,#FFFFFF,monoclinic
Clinojimthompsonite,Mg5Si6O16(OH)2,"{""Mg"": 5.0, ""Si"": 6.0, ""O"": 18.0, ""H"": 2.0}",580.033,#FFFFFF,monoclinic
Clinokurchatovite,CaMgB2O5,"{""Ca"": 1.0, ""Mg"": 1.0, ""B"": 2.0, ""O"": 5.0}",165.998,#FFFFFF,monoclinic
Clinometaborite,HBO2,"{""H"": 1.0, ""B"": 1.0, ""O"": 2.0}",43.816,#FFFFFF,monoclinic
Clino-oscarkempffite,Ag15Pb6Sb21Bi18S72,"{""Ag"": 15.0, ""Pb"": 6.0, ""Sb"": 21.0, ""Bi"": 18.0, ""S"": 72.0}",11488.17,#708090,monoclinic
Clinophosinaite,Na3Ca(SiO3)(PO4),"{""Na"": 3.0, ""Ca"": 1.0, ""Si"": 1.0, ""O"": 7.0, ""P"": 1.0}",280.1,#FFFFFF,monoclinic
Clinoptilolite-Ca,Ca3(Si30Al6)O72·20H2O,"{""Ca"": 3.0, ""Si"": 30.0, ""Al"": 6.0, ""O"": 92.0, ""H"": 40.0}",2636.904,#FFFFFF,monoclinic
Clinoptilolite-K,K6(Si30Al6)O72·20H2O,"{""K"": 6.0, ""Si"": 30.0, ""Al"": 6.0, ""O"": 92.0, ""H"": 40.0}",2751.258,#FFFFFF,monoclinic
Clinoptilolite-Na,Na6(Si30Al6)O72·20H2O,"{""Na"": 6.0, ""Si"": 30.0, ""Al"": 6.0, ""O"": 92.0, ""H"": 40.0}",2654.61,#FFFFFF,monoclinic
Clinosafflorite,CoAs2,"{""Co"": 1.0, ""As"": 2.0}",208.777,#4169E1,monoclinic
Clinosulphur,S,"{""S"": 1.0}",32.06,#A9A9A9,monoclinic
Clinotobermorite,Ca4Si6O17(H2O)2·(Ca·3H2O),"{""Ca"": 7.0, ""Si"": 6.0, ""O"": 28.0, ""H"": 22.0}",919.204,#FFFFFF,monoclinic
Clinoungemachite,K3Na8Fe3+(SO4)6(OH)2·10H2O,"{""K"": 3.0, ""Na"": 8.0, ""Fe"": 1.0, ""S"": 6.0, ""O"": 36.0, ""H"": 22.0}",1147.559,#556B2F,
Clinozoisite,Ca2Al3[Si2O7][SiO4]O(OH),"{""Ca"": 2.0, ""Al"": 3.0, ""Si"": 3.0, ""O"": 13.0, ""H"": 1.0}",454.352,#FFFFFF,monoclinic
Clintonite,CaAlMg2(SiAl3O10)(OH)2,"{""Ca"": 1.0, ""Al"": 4.0, ""Mg"": 2.0, ""Si"": 1.0, ""O"": 12.0, ""H"": 2.0}",418.705,#FFFFFF,monoclinic
Clogauite,PbBi4Te4S3,"{""Pb"": 1.0, ""Bi"": 4.0, ""Te"": 4.0, ""S"": 3.0}",1649.7,#708090,hexagonal
Cloudite,BaFe3+3(PO4)(SO4)(OH)6,"{""Ba"": 1.0, ""Fe"": 3.0, ""P"": 1.0, ""O"": 14.0, ""S"": 1.0, ""H"": 6.0}",597.933,#556B2F,hexagonal
Coalingite,Mg10Fe3+2(CO3)(OH)24·2H2O,"{""Mg"": 10.0, ""Fe"": 2.0, ""C"": 1.0, ""O"": 29.0, ""H"": 28.0}",858.946,#556B2F,hexagonal
Cobaltarthurite,CoFe3+2(AsO4)2(OH)2·4H2O,"{""Co"": 1.0, ""Fe"": 2.0, ""As"": 2.0, ""O"": 14.0, ""H"": 10.0}",554.533,#556B2F,monoclinic
Cobaltaustinite,CaCo(AsO4)(OH),"{""Ca"": 1.0, ""Co"": 1.0, ""As"": 1.0, ""O"": 5.0, ""H"": 1.0}",254.936,#FFFFFF,orthorhombic
Cobaltite,CoAsS,"{""Co"": 1.0, ""As"": 1.0, ""S"": 1.0}",165.915,#FFD700,cubic
Cobaltkieserite,Co(SO4)·H2O,"{""Co"": 1.0, ""S"": 1.0, ""O"": 5.0, ""H"": 2.0}",173.004,#FFFFFF,monoclinic
Cobaltkoritnigite,Co(AsO3OH)·H2O,"{""Co"": 1.0, ""As"": 1.0, ""O"": 5.0, ""H"": 3.0}",216.874,#FFFFFF,triclinic
Cobaltlotharmeyerite,CaCo2(AsO4)2·2H2O,"{""Ca"": 1.0, ""Co"": 2.0, ""As"": 2.0, ""O"": 10.0, ""H"": 4.0}",471.81,#FFFFFF,monoclinic
Cobaltoblodite,Na2Co(SO4)2·4H2O,"{""Na"": 2.0, ""Co"": 1.0, ""S"": 2.0, ""O"": 12.0, ""H"": 8.0}",369.085,#FFFFFF,monoclinic
Cobaltomenite,Co(Se4+O3)·2H2O,"{""Co"": 1.0, ""Se"": 1.0, ""O"": 5.0, ""H"": 4.0}",221.931,#FFFFFF,monoclinic
Cobaltpentlandite,Co9S8,"{""Co"": 9.0, ""S"": 8.0}",786.877,#A9A9A9,cubic
Cobalttsumcorite,PbCo2(AsO4)2·2H2O,"{""Pb"": 1.0, ""Co"": 2.0, ""As"": 2.0, ""O"": 10.0, ""H"": 4.0}",638.932,#FFFFFF,monoclinic
Coccinite,HgI2,"{""Hg"": 1.0, ""I"": 2.0}",454.39,#FFFFFF,tetragonal
Cochromite,CoCr2O4,"{""Co"": 1.0, ""Cr"": 2.0, ""O"": 4.0}",226.921,#4169E1,cubic
Coconinoite,Fe3+2Al2(UO2)2(PO4)4(SO4)(OH)2·20H2O,"{""Fe"": 2.0, ""Al"": 2.0, ""U"": 2.0, ""O"": 46.0, ""P"": 4.0, ""S"": 1.0, ""H"": 42.0}",1575.96,#556B2F,monoclinic
Coesite,SiO2,"{""Si"": 1.0, ""O"": 2.0}",60.083,#FFFFFF,monoclinic
Cohenite,CFe3,"{""C"": 1.0, ""Fe"": 3.0}",179.546,#8B4513,orthorhombic
Colchesterite,Bi3+2Mo6+2O9,"{""Bi"": 2.0, ""Mo"": 2.0, ""O"": 9.0}",753.851,#D2B48C,monoclinic
Coldwellite,Pd3Ag2S,"{""Pd"": 3.0, ""Ag"": 2.0, ""S"": 1.0}",567.06,#A9A9A9,
Colemanite,CaB3O4(OH)3·H2O,"{""Ca"": 1.0, ""B"": 3.0, ""O"": 8.0, ""H"": 5.0}",205.54,#FFFFFF,monoclinic
Colimaite,K3VS4,"{""K"": 3.0, ""V"": 1.0, ""S"": 4.0}",296.476,#A9A9A9,orthorhombic
Colinowensite,BaCuSi2O6,"{""Ba"": 1.0, ""Cu"": 1.0, ""Si"": 2.0, ""O"": 6.0}",353.04,#FFFFFF,tetragonal
Collinsite,Ca2Mg(PO4)2·2H2O,"{""Ca"": 2.0, ""Mg"": 1.0, ""P"": 2.0, ""O"": 10.0, ""H"": 4.0}",330.431,#FFFFFF,triclinic
Colomeraite,NaTi3+Si2O6,"{""Na"": 1.0, ""Ti"": 1.0, ""Si"": 2.0, ""O"": 6.0}",223.021,#FFFFFF,monoclinic
Coloradoite,HgTe,"{""Hg"": 1.0, ""Te"": 1.0}",328.19,#FFFFFF,cubic
Colquiriite,CaLiAlF6,"{""Ca"": 1.0, ""Li"": 1.0, ""Al"": 1.0, ""F"": 6.0}",187.988,#FFFFFF,hexagonal
Columbite-(Fe),Fe2+Nb2O6,"{""Fe"": 1.0, ""Nb"": 2.0, ""O"": 6.0}",337.651,#8B4513,orthorhombic
Columbite-(Mg),MgNb2O6,"{""Mg"": 1.0, ""Nb"": 2.0, ""O"": 6.0}",306.111,#FFFFFF,orthorhombic
Colusite,Cu13VAs3S16,"{""Cu"": 13.0, ""V"": 1.0, ""As"": 3.0, ""S"": 16.0}",1614.766,#FFD700,cubic
Comblainite,Ni4Co3+2(OH)12(CO3)·3H2O,"{""Ni"": 4.0, ""Co"": 2.0, ""O"": 18.0, ""H"": 18.0, ""C"": 1.0}",670.775,#FFFFFF,hexagonal
Compreignacite,K2(UO2)6O4(OH)6·7H2O,"{""K"": 2.0, ""U"": 6.0, ""O"": 29.0, ""H"": 20.0}",1990.507,#FFFFFF,orthorhombic
Congolite,Fe2+3B7O13Cl,"{""Fe"": 3.0, ""B"": 7.0, ""O"": 13.0, ""Cl"": 1.0}",486.642,#556B2F,hexagonal
Conichalcite,CaCu(AsO4)(OH),"{""Ca"": 1.0, ""Cu"": 1.0, ""As"": 1.0, ""O"": 5.0, ""H"": 1.0}",259.549,#FFFFFF,orthorhombic
Connellite,Cu36(SO4)(OH)62Cl8·6H2O,"{""Cu"": 36.0, ""S"": 1.0, ""O"": 72.0, ""H"": 74.0, ""Cl"": 8.0}",3829.836,#FFFFFF,hexagonal
Cooperite,PtS,"{""Pt"": 1.0, ""S"": 1.0}",227.14,#A9A9A9,tetragonal
Coparsite,Cu2+4O2(AsO4)Cl,"{""Cu"": 4.0, ""O"": 6.0, ""As"": 1.0, ""Cl"": 1.0}",460.55,#FFFFFF,orthorhombic
Copiapite,Fe2+Fe3+4(SO4)6(OH)2·20H2O,"{""Fe"": 5.0, ""S"": 6.0, ""O"": 46.0, ""H"": 42.0}",1249.875,#556B2F,triclinic
Copper,Cu,"{""Cu"": 1.0}",63.546,#00BFFF,cubic
Coquimbite,AlFe3(SO4)6(H2O)12·6H2O,"{""Al"": 1.0, ""Fe"": 3.0, ""S"": 6.0, ""O"": 42.0, ""H"": 36.0}",1095.123,#556B2F,hexagonal
Corderoite,Hg3S2Cl2,"{""Hg"": 3.0, ""S"": 2.0, ""Cl"": 2.0}",736.79,#A9A9A9,cubic
Cordierite,Mg2Al4Si5O18,"{""Mg"": 2.0, ""Al"": 4.0, ""Si"": 5.0, ""O"": 18.0}",584.945,#FFFFFF,orthorhombic
Cordylite-(La),NaCaBa2La3Sr(CO3)8F2,"{""Na"": 1.0, ""Ca"": 1.0, ""Ba"": 2.0, ""La"": 3.0, ""Sr"": 1.0, ""C"": 8.0, ""O"": 24.0, ""F"": 2.0}",1360.138,#FFFFFF,hexagonal
Corkite,PbFe3+3(SO4)(PO4)(OH)6,"{""Pb"": 1.0, ""Fe"": 3.0, ""S"": 1.0, ""O"": 14.0, ""P"": 1.0, ""H"": 6.0}",667.803,#556B2F,hexagonal
Cornetite,Cu3(PO4)(OH)3,"{""Cu"": 3.0, ""P"": 1.0, ""O"": 7.0, ""H"": 3.0}",336.629,#FFFFFF,orthorhombic
Cornubite,Cu5(AsO4)2(OH)4,"{""Cu"": 5.0, ""As"": 2.0, ""O"": 12.0, ""H"": 4.0}",663.594,#FFFFFF,triclinic
Cornwallite,Cu5(AsO4)2(OH)4,"{""Cu"": 5.0, ""As"": 2.0, ""O"": 12.0, ""H"": 4.0}",663.594,#FFFFFF,monoclinic
Cortesognoite,CaV2Si2O7(OH)2·H2O,"{""Ca"": 1.0, ""V"": 2.0, ""Si"": 2.0, ""O"": 10.0, ""H"": 4.0}",362.154,#FFFFFF,orthorhombic
Corundum,Al2O3,"{""Al"": 2.0, ""O"": 3.0}",101.961,#FFFFFF,hexagonal
Cosalite,Pb2Bi2S5,"{""Pb"": 2.0, ""Bi"": 2.0, ""S"": 5.0}",992.66,#708090,orthorhombic
Coskrenite-(Ce),Ce2(SO4)2(C2O4)·8H2O,"{""Ce"": 2.0, ""S"": 2.0, ""O"": 20.0, ""C"": 2.0, ""H"": 16.0}",704.49,#FFFFFF,triclinic
Costibite,CoSbS,"{""Co"": 1.0, ""Sb"": 1.0, ""S"": 1.0}",212.753,#A9A9A9,orthorhombic
Cotunnite,PbCl2,"{""Pb"": 1.0, ""Cl"": 2.0}",278.1,#FFFFFF,orthorhombic
Coulsonite,Fe2+V3+2O4,"{""Fe"": 1.0, ""V"": 2.0, ""O"": 4.0}",221.725,#8B4513,cubic
Cousinite,MgU4+2(MoO4)2(OH)6·2H2O (?),"{""Mg"": 1.0, ""U"": 2.0, ""Mo"": 2.0, ""O"": 16.0, ""H"": 10.0}",958.329,#FFFFFF,
Covellite,CuS,"{""Cu"": 1.0, ""S"": 1.0}",95.606,#A9A9A9,hexagonal
Cowlesite,Ca(Al2Si3)O10·5-6H2O,"{""Ca"": 1.0, ""Al"": 2.0, ""Si"": 3.0, ""O"": 16.0, ""H"": 12.0}",446.377,#FFFFFF,orthorhombic
Coyoteite,NaFe3S5·2H2O,"{""Na"": 1.0, ""Fe"": 3.0, ""S"": 5.0, ""H"": 4.0, ""O"": 2.0}",386.855,#556B2F,triclinic
Crandallite,CaAl3(PO4)(PO3OH)(OH)6,"{""Ca"": 1.0, ""Al"": 3.0, ""P"": 2.0, ""O"": 14.0, ""H"": 7.0}",414.014,#FFFFFF,hexagonal
Cranswickite,Mg(SO4)·4H2O,"{""Mg"": 1.0, ""S"": 1.0, ""O"": 8.0, ""H"": 8.0}",192.421,#FFFFFF,triclinic
Crawfordite,Na3Sr(PO4)(CO3),"{""Na"": 3.0, ""Sr"": 1.0, ""P"": 1.0, ""O"": 7.0, ""C"": 1.0}",311.568,#FFFFFF,monoclinic
Creaseyite,Cu2Pb2Fe3+2Si5O17·6H2O,"{""Cu"": 2.0, ""Pb"": 2.0, ""Fe"": 2.0, ""Si"": 5.0, ""O"": 23.0, ""H"": 12.0}",1173.68,#556B2F,orthorhombic
Creedite,Ca3Al2(SO4)(OH)2F8·2H2O,"{""Ca"": 3.0, ""Al"": 2.0, ""S"": 1.0, ""O"": 8.0, ""H"": 6.0, ""F"": 8.0}",492.282,#FFFFFF,monoclinic
Criddleite,Ag2Au3TlSb10S10,"{""Ag"": 2.0, ""Au"": 3.0, ""Tl"": 1.0, ""Sb"": 10.0, ""S"": 10.0}",2549.23,#A9A9A9,monoclinic