name,formula,elements,density,color,crystal,pm_ids,gacha_weight
Liberite,Li2Be(SiO4),"{""Li"": 2.0, ""Be"": 1.0, ""Si"": 1.0, ""O"": 4.0}",114.9732,#FFFFFF,monoclinic,"{22,34}",811.0
Libethenite,Cu2(PO4)(OH),"{""Cu"": 2.0, ""P"": 1.0, ""O"": 5.0, ""H"": 1.0}",239.069,#FFFFFF,orthorhombic,{47},1998.0
Liddicoatite,Ca(Li2Al)Al6(Si6O18)(BO3)3(OH)3(OH),"{""Ca"": 1.0, ""Li"": 2.0, ""Al"": 7.0, ""Si"": 6.0, ""O"": 31.0, ""B"": 3.0, ""H"": 4.0}",943.773,#FFFFFF,hexagonal,{},1.0
Liebauite,Ca3Cu5Si9O26,"{""Ca"": 3.0, ""Cu"": 5.0, ""Si"": 9.0, ""O"": 26.0}",1106.703,#FFFFFF,monoclinic,"{9,26}",377.0
Liebenbergite,Ni2(SiO4),"{""Ni"": 2.0, ""Si"": 1.0, ""O"": 4.0}",209.467,#7FFF00,orthorhombic,"{7,47,56}",2264.0
Liebermannite,KAlSi3O8,"{""K"": 1.0, ""Al"": 1.0, ""Si"": 3.0, ""O"": 8.0}",278.327,#FFFFFF,tetragonal,{6},205.0
Liebigite,Ca2(UO2)(CO3)3·11H2O,"{""Ca"": 2.0, ""U"": 1.0, ""O"": 22.0, ""C"": 3.0, ""H"": 22.0}",728.373,#FFFFFF,orthorhombic,{47},1998.0
Liguowuite,WO3,"{""W"": 1.0, ""O"": 3.0}",231.837,#FFFFFF,monoclinic,{34},564.0
Likasite,Cu3(NO3)(OH)5·2H2O,"{""Cu"": 3.0, ""N"": 1.0, ""O"": 10.0, ""H"": 9.0}",373.707,#FFFFFF,orthorhombic,{47},1998.0
Lileyite,Ba2Ti2Na(NaFe2+)Mg(Si2O7)2O2F2,"{""Ba"": 2.0, ""Ti"": 2.0, ""Na"": 2.0, ""Fe"": 1.0, ""Mg"": 1.0, ""Si"": 4.0, ""O"": 16.0, ""F"": 2.0}",902.844,#556B2F,monoclinic,{35},726.0
Lime,CaO,"{""Ca"": 1.0, ""O"": 1.0}",56.077,#FFFFFF,cubic,"{31,38,47,50,51,54}",3097.0
Limousinite,BaCa[Be4P4O16]·6H2O,"{""Ba"": 1.0, ""Ca"": 1.0, ""Be"": 4.0, ""P"": 4.0, ""O"": 22.0, ""H"": 12.0}",701.4268,#FFFFFF,monoclinic,{22},247.0
Linarite,CuPb(SO4)(OH)2,"{""Cu"": 1.0, ""Pb"": 1.0, ""S"": 1.0, ""O"": 6.0, ""H"": 2.0}",400.816,#FFFFFF,monoclinic,"{45,47,55,56}",2829.0
Lindackerite,Cu5(AsO4)2(AsO3OH)2·9H2O,"{""Cu"": 5.0, ""As"": 4.0, ""O"": 25.0, ""H"": 20.0}",1037.553,#FFFFFF,triclinic,"{47,55,56}",2405.0
Lindgrenite,Cu3(Mo6+O4)2(OH)2,"{""Cu"": 3.0, ""Mo"": 2.0, ""O"": 10.0, ""H"": 2.0}",544.544,#FFFFFF,monoclinic,{47},1998.0
Lindstromite,Pb3Cu3Bi7S15,"{""Pb"": 3.0, ""Cu"": 3.0, ""Bi"": 7.0, ""S"": 15.0}",2755.998,#708090,orthorhombic,{33},797.0
Linekite,K2Ca3[(UO2)(CO3)3]2·8H2O,"{""K"": 2.0, ""Ca"": 3.0, ""U"": 2.0, ""O"": 30.0, ""C"": 6.0, ""H"": 16.0}",1242.654,#FFFFFF,orthorhombic,"{47,55}",2262.0
Lingbaoite,AgTe3,"{""Ag"": 1.0, ""Te"": 3.0}",490.67,#C0C0C0,hexagonal,{33},797.0
Lingunite,NaAlSi3O8,"{""Na"": 1.0, ""Al"": 1.0, ""Si"": 3.0, ""O"": 8.0}",262.219,#FFFFFF,tetragonal,"{6,30}",221.0
Linnaeite,Co2+Co3+2S4,"{""Co"": 3.0, ""S"": 4.0}",305.039,#A9A9A9,cubic,"{12,13,37,51}",459.0
Lintisite,Na3LiTi2O2(SiO3)4·2H2O,"{""Na"": 3.0, ""Li"": 1.0, ""Ti"": 2.0, ""O"": 16.0, ""Si"": 4.0, ""H"": 4.0}",544.0,#FFFFFF,monoclinic,{35},726.0
Linzhiite,FeSi2,"{""Fe"": 1.0, ""Si"": 2.0}",112.015,#8B4513,tetragonal,"{7,26,36,38}",772.0
Liottite,Na16Ca8Si18Al18O72(SO4)5Cl4,"{""Na"": 16.0, ""Ca"": 8.0, ""Si"": 18.0, ""Al"": 18.0, ""O"": 92.0, ""S"": 5.0, ""Cl"": 4.0}",3453.678,#FFFFFF,hexagonal,"{31,35}",1082.0
Lipscombite,Fe2+Fe3+2(PO4)2(OH)2,"{""Fe"": 3.0, ""P"": 2.0, ""O"": 10.0, ""H"": 2.0}",391.489,#556B2F,unknown,{22},247.0
Liroconite,Cu2Al(AsO4)(OH)4·4H2O,"{""Cu"": 2.0, ""Al"": 1.0, ""As"": 1.0, ""O"": 12.0, ""H"": 12.0}",433.08,#FFFFFF,monoclinic,{47},1998.0
Lisanite,CaNiP2O7,"{""Ca"": 1.0, ""Ni"": 1.0, ""P"": 2.0, ""O"": 7.0}",272.712,#FFFFFF,triclinic,{51},128.0
Lisetite,Na2CaAl4(SiO4)4,"{""Na"": 2.0, ""Ca"": 1.0, ""Al"": 4.0, ""Si"": 4.0, ""O"": 16.0}",562.31,#FFFFFF,orthorhombic,{40},319.0
Lisiguangite,CuPtBiS3,"{""Cu"": 1.0, ""Pt"": 1.0, ""Bi"": 1.0, ""S"": 3.0}",563.786,#A9A9A9,orthorhombic,{12},129.0
Lisitsynite,KBSi2O6,"{""K"": 1.0, ""B"": 1.0, ""Si"": 2.0, ""O"": 6.0}",202.072,#FFFFFF,orthorhombic,{35},726.0
Lislkirchnerite,Pb6Al(OH)8Cl2(NO3)5·2H2O,"{""Pb"": 6.0, ""Al"": 1.0, ""O"": 25.0, ""H"": 12.0, ""Cl"": 2.0, ""N"": 5.0}",1823.188,#FFFFFF,monoclinic,{47},1998.0
Litharge,PbO,"{""Pb"": 1.0, ""O"": 1.0}",223.199,#FFFFFF,tetragonal,"{47,50,54,55,56}",2912.0
Lithiophosphate,Li3(PO4),"{""Li"": 3.0, ""P"": 1.0, ""O"": 4.0}",115.79,#FFFFFF,orthorhombic,"{22,34}",811.0
Lithiotantite,LiTa3O8,"{""Li"": 1.0, ""Ta"": 3.0, ""O"": 8.0}",677.782,#FFFFFF,monoclinic,{34},564.0
Lithiowodginite,LiTa3O8,"{""Li"": 1.0, ""Ta"": 3.0, ""O"": 8.0}",677.782,#FFFFFF,monoclinic,{34},564.0
Lithosite,K3Al2Si4O12(OH),"{""K"": 3.0, ""Al"": 2.0, ""Si"": 4.0, ""O"": 13.0, ""H"": 1.0}",492.593,#FFFFFF,monoclinic,{47},1998.0
Litidionite,KNaCuSi4O10,"{""K"": 1.0, ""Na"": 1.0, ""Cu"": 1.0, ""Si"": 4.0, ""O"": 10.0}",397.964,#FFFFFF,triclinic,{},1.0
Litochlebite,Ag2PbBi4Se8,"{""Ag"": 2.0, ""Pb"": 1.0, ""Bi"": 4.0, ""Se"": 8.0}",1890.628,#FFFFFF,monoclinic,{33},797.0
Litvinskite,Na3ZrSi6O13(OH)5,"{""Na"": 3.0, ""Zr"": 1.0, ""Si"": 6.0, ""O"": 18.0, ""H"": 5.0}",621.726,#FFFFFF,monoclinic,{35},726.0
Liuite,FeTiO3,"{""Fe"": 1.0, ""Ti"": 1.0, ""O"": 3.0}",151.709,#8B4513,orthorhombic,{6},205.0
Liveingite,Pb20As24S56,"{""Pb"": 20.0, ""As"": 24.0, ""S"": 56.0}",7737.488,#708090,monoclinic,{33},797.0
Livingstonite,HgSb4S6(S)2,"{""Hg"": 1.0, ""Sb"": 4.0, ""S"": 8.0}",944.11,#A9A9A9,monoclinic,{33},797.0
Lizardite,Mg3Si2O5(OH)4,"{""Mg"": 3.0, ""Si"": 2.0, ""O"": 9.0, ""H"": 4.0}",277.108,#FFFFFF,triclinic,"{13,38,40}",494.0
Llantenesite,Cu6Al[SeO4](OH)12Cl·3H2O,"{""Cu"": 6.0, ""Al"": 1.0, ""Se"": 1.0, ""O"": 19.0, ""H"": 18.0, ""Cl"": 1.0}",844.804,#FFFFFF,hexagonal,{47},1998.0
Lobanovite,K2Na(Fe2+4Mg2Na)Ti2(Si4O12)2O2(OH)4,"{""K"": 2.0, ""Na"": 2.0, ""Fe"": 4.0, ""Mg"": 2.0, ""Ti"": 2.0, ""Si"": 8.0, ""O"": 30.0, ""H"": 4.0}",1200.582,#556B2F,monoclinic,{35},726.0
Lokkaite-(Y),CaY4(CO3)7·9H2O,"{""Ca"": 1.0, ""Y"": 4.0, ""C"": 7.0, ""O"": 30.0, ""H"": 18.0}",977.893,#FFFFFF,orthorhombic,{47},1998.0
Lollingite,FeAs2,"{""Fe"": 1.0, ""As"": 2.0}",205.689,#8B4513,orthorhombic,"{12,33,34}",1490.0
Lomonosovite,Na6Na2Ti2Na2Ti2(Si2O7)2(PO4)2O4,"{""Na"": 10.0, ""Ti"": 4.0, ""Si"": 4.0, ""O"": 26.0, ""P"": 2.0}",1011.63,#FFFFFF,triclinic,{35},726.0
Londonite,CsBe4Al4(B11Be)O28,"{""Cs"": 1.0, ""Be"": 5.0, ""Al"": 4.0, ""B"": 11.0, ""O"": 28.0}",852.781,#FFFFFF,cubic,{34},564.0
Lonecreekite,(NH4)Fe3+(SO4)2·12H2O,"{""N"": 1.0, ""H"": 28.0, ""Fe"": 1.0, ""S"": 2.0, ""O"": 20.0}",482.176,#556B2F,cubic,"{45,47,53}",2539.0
Lonsdaleite,C,"{""C"": 1.0}",12.011,#FFFFFF,hexagonal,"{6,30,36}",512.0
Loomisite,Ba[Be2P2O8]·H2O,"{""Ba"": 1.0, ""Be"": 2.0, ""P"": 2.0, ""O"": 9.0, ""H"": 2.0}",363.3094,#FFFFFF,monoclinic,{34},564.0
Lopatkaite,Pb5Sb3AsS11,"{""Pb"": 5.0, ""Sb"": 3.0, ""As"": 1.0, ""S"": 11.0}",1828.862,#708090,monoclinic,{33},797.0
Lopezite,K2Cr2O7,"{""K"": 2.0, ""Cr"": 2.0, ""O"": 7.0}",294.181,#228B22,triclinic,"{25,56}",353.0
Lorandite,TlAsS2,"{""Tl"": 1.0, ""As"": 1.0, ""S"": 2.0}",343.422,#FFD700,monoclinic,"{23,33}",1195.0
Lorenzenite,Na2Ti2O3(Si2O6),"{""Na"": 2.0, ""Ti"": 2.0, ""O"": 9.0, ""Si"": 2.0}",341.875,#FFFFFF,orthorhombic,{35},726.0
Loudounite,NaCa5Zr4Si16O40(OH)11·8H2O,"{""Na"": 1.0, ""Ca"": 5.0, ""Zr"": 4.0, ""Si"": 16.0, ""O"": 59.0, ""H"": 27.0}",2008.793,#FFFFFF,unknown,{47},1998.0
Loughlinite,Na2Mg3Si6O16·8H2O,"{""Na"": 2.0, ""Mg"": 3.0, ""Si"": 6.0, ""O"": 24.0, ""H"": 16.0}",687.509,#FFFFFF,unknown,"{47,50}",2271.0
Louisfuchsite,Ca2(Mg4Ti2)(Al4Si2)O20,"{""Ca"": 2.0, ""Mg"": 4.0, ""Ti"": 2.0, ""Al"": 4.0, ""Si"": 2.0, ""O"": 20.0}",757.188,#FFFFFF,triclinic,{3},48.0
Lovdarite,K2Na6Be4Si14O36·9H2O,"{""K"": 2.0, ""Na"": 6.0, ""Be"": 4.0, ""Si"": 14.0, ""O"": 45.0, ""H"": 18.0}",1383.4738,#FFFFFF,orthorhombic,{35},726.0
Lovozerite,Na3CaZrSi6O15(OH)3,"{""Na"": 3.0, ""Ca"": 1.0, ""Zr"": 1.0, ""Si"": 6.0, ""O"": 18.0, ""H"": 3.0}",659.788,#FFFFFF,hexagonal,{35},726.0
Loweite,Na12Mg7(SO4)13·15H2O,"{""Na"": 12.0, ""Mg"": 7.0, ""S"": 13.0, ""O"": 67.0, ""H"": 30.0}",1964.968,#FFFFFF,hexagonal,"{25,45}",634.0
Luanheite,Ag3Hg,"{""Ag"": 3.0, ""Hg"": 1.0}",524.2,#C0C0C0,hexagonal,"{26,33}",1047.0
Luberoite,Pt5Se4,"{""Pt"": 5.0, ""Se"": 4.0}",1291.284,#FFFFFF,monoclinic,"{26,33}",1047.0
Lucasite-(Ce),CeTi2O5(OH),"{""Ce"": 1.0, ""Ti"": 2.0, ""O"": 6.0, ""H"": 1.0}",332.856,#FFFFFF,monoclinic,"{26,35}",976.0
Lucasite-(La),LaTi2O5(OH),"{""La"": 1.0, ""Ti"": 2.0, ""O"": 6.0, ""H"": 1.0}",331.646,#FFFFFF,monoclinic,{},1.0
Lucchesiite,CaFe2+3Al6(Si6O18)(BO3)3(OH)3O,"{""Ca"": 1.0, ""Fe"": 3.0, ""Al"": 6.0, ""Si"": 6.0, ""O"": 31.0, ""B"": 3.0, ""H"": 3.0}",1069.438,#556B2F,hexagonal,{34},564.0
Luddenite,Cu2Pb2Si5O14·14H2O,"{""Cu"": 2.0, ""Pb"": 2.0, ""Si"": 5.0, ""O"": 28.0, ""H"": 28.0}",1158.113,#FFFFFF,monoclinic,{47},1998.0
Ludjibaite,Cu5(PO4)2(OH)4,"{""Cu"": 5.0, ""P"": 2.0, ""O"": 12.0, ""H"": 4.0}",575.698,#FFFFFF,triclinic,{47},1998.0
Ludlamite,Fe2+3(PO4)2·4H2O,"{""Fe"": 3.0, ""P"": 2.0, ""O"": 12.0, ""H"": 8.0}",429.535,#556B2F,monoclinic,"{23,34}",962.0
Ludlockite,PbFe3+4As3+10O22,"{""Pb"": 1.0, ""Fe"": 4.0, ""As"": 10.0, ""O"": 22.0}",1531.778,#556B2F,triclinic,"{46,56}",195.0
Ludwigite,Mg2Fe3+O2(BO3),"{""Mg"": 2.0, ""Fe"": 1.0, ""O"": 5.0, ""B"": 1.0}",195.26,#556B2F,orthorhombic,"{23,31,45}",1178.0
Lueshite,NaNbO3,"{""Na"": 1.0, ""Nb"": 1.0, ""O"": 3.0}",163.893,#FFFFFF,orthorhombic,{35},726.0
Luetheite,CuAl(AsO4)(OH)2,"{""Cu"": 1.0, ""Al"": 1.0, ""As"": 1.0, ""O"": 6.0, ""H"": 2.0}",263.46,#FFFFFF,monoclinic,{47},1998.0
Lukechangite-(Ce),Na3Ce2(CO3)4F,"{""Na"": 3.0, ""Ce"": 2.0, ""C"": 4.0, ""O"": 12.0, ""F"": 1.0}",608.24,#FFFFFF,hexagonal,{35},726.0
Lukkulaisvaaraite,Pd14Ag2Te9,"{""Pd"": 14.0, ""Ag"": 2.0, ""Te"": 9.0}",2854.02,#C0C0C0,tetragonal,"{33,37}",932.0
Lulzacite,Sr2Fe2+3Al4(PO4)4(OH)10,"{""Sr"": 2.0, ""Fe"": 3.0, ""Al"": 4.0, ""P"": 4.0, ""O"": 26.0, ""H"": 10.0}",1000.653,#556B2F,triclinic,{23},398.0
Lumsdenite,NaCa3Mg2(As3+V4+2V5+10As5+6O51)·45H2O,"{""Na"": 1.0, ""Ca"": 3.0, ""Mg"": 2.0, ""As"": 7.0, ""V"": 12.0, ""O"": 96.0, ""H"": 90.0}",2954.216,#FFFFFF,triclinic,{47},1998.0
Luneburgite,Mg3[B2(OH)6(PO4)2]·6H2O,"{""Mg"": 3.0, ""B"": 2.0, ""O"": 20.0, ""H"": 18.0, ""P"": 2.0}",494.607,#FFFFFF,triclinic,{25},210.0
Luogufengite,Fe2O3,"{""Fe"": 2.0, ""O"": 3.0}",159.687,#8B4513,orthorhombic,"{9,47}",2125.0
Lussierite,Na10[(UO2)(SO4)4](SO4)2(H2O)3,"{""Na"": 10.0, ""U"": 1.0, ""O"": 29.0, ""S"": 6.0, ""H"": 6.0}",1130.309,#FFFFFF,monoclinic,{47},1998.0
Luxembourgite,AgCuPbBi4Se8,"{""Ag"": 1.0, ""Cu"": 1.0, ""Pb"": 1.0, ""Bi"": 4.0, ""Se"": 8.0}",1846.304,#FFFFFF,monoclinic,{33},797.0
Luzonite,Cu3AsS4,"{""Cu"": 3.0, ""As"": 1.0, ""S"": 4.0}",393.8,#FFD700,tetragonal,{12},129.0
Lyonsite,Cu2+3Fe3+4(VO4)6,"{""Cu"": 3.0, ""Fe"": 4.0, ""V"": 6.0, ""O"": 24.0}",1103.646,#556B2F,orthorhombic,"{45,55}",688.0
Macaulayite,Fe3+24Si4O43(OH)2,"{""Fe"": 24.0, ""Si"": 4.0, ""O"": 45.0, ""H"": 2.0}",2174.591,#556B2F,monoclinic,{47},1998.0
Macdonaldite,BaCa4Si16O36(OH)2·10H2O,"{""Ba"": 1.0, ""Ca"": 4.0, ""Si"": 16.0, ""O"": 48.0, ""H"": 22.0}",1537.13,#FFFFFF,orthorhombic,"{22,32}",659.0
Macedonite,PbTiO3,"{""Pb"": 1.0, ""Ti"": 1.0, ""O"": 3.0}",303.064,#FFFFFF,orthorhombic,"{32,34}",976.0
Machatschkiite,Ca6(AsO4)(AsO3OH)3(PO4)·15H2O,"{""Ca"": 6.0, ""As"": 4.0, ""O"": 35.0, ""H"": 33.0, ""P"": 1.0}",1164.359,#FFFFFF,hexagonal,{47},1998.0
Machiite,Al2Ti3O9,"{""Al"": 2.0, ""Ti"": 3.0, ""O"": 9.0}",341.556,#FFFFFF,monoclinic,"{3,50,54}",555.0
Macivorite,(NH4)3Al5(PO3OH)6(PO4)2·18H2O,"{""N"": 3.0, ""H"": 54.0, ""Al"": 5.0, ""P"": 8.0, ""O"": 50.0}",1279.105,#FFFFFF,hexagonal,{},1.0
Mackayite,Fe3+Te4+2O5(OH),"{""Fe"": 1.0, ""Te"": 2.0, ""O"": 6.0, ""H"": 1.0}",408.047,#556B2F,tetragonal,{47},1998.0
Mackinawite,FeS,"{""Fe"": 1.0, ""S"": 1.0}",87.905,#DAA520,tetragonal,"{12,13,22,33,37,44,47,49}",3461.0
Macphersonite,Pb4(SO4)(CO3)2(OH)2,"{""Pb"": 4.0, ""S"": 1.0, ""O"": 12.0, ""C"": 2.0, ""H"": 2.0}",1078.886,#FFFFFF,orthorhombic,"{47,55}",2262.0
Macquartite,Cu2Pb7(CrO4)4(SiO4)2(OH)2,"{""Cu"": 2.0, ""Pb"": 7.0, ""Cr"": 4.0, ""O"": 26.0, ""Si"": 2.0, ""H"": 2.0}",2259.636,#FFFFFF,monoclinic,{47},1998.0
Madeiraite,Na2Ca2Fe2Zr2(Si2O7)2O2F2,"{""Na"": 2.0, ""Ca"": 2.0, ""Fe"": 2.0, ""Zr"": 2.0, ""Si"": 4.0, ""O"": 16.0, ""F"": 2.0}",826.594,#556B2F,monoclinic,{35},726.0
Magadiite,Na2Si14O28(OH)2·8H2O,"{""Na"": 2.0, ""Si"": 14.0, ""O"": 38.0, ""H"": 18.0}",1065.276,#FFFFFF,monoclinic,"{10,14,16,25,35}",1187.0
Magbasite,KBaFe3+Mg7Si8O22(OH)2F6,"{""K"": 1.0, ""Ba"": 1.0, ""Fe"": 1.0, ""Mg"": 7.0, ""Si"": 8.0, ""O"": 24.0, ""H"": 2.0, ""F"": 6.0}",1127.068,#556B2F,orthorhombic,"{23,36}",689.0
Magganasite,CuFe3+3O(AsO4)3,"{""Cu"": 1.0, ""Fe"": 3.0, ""O"": 13.0, ""As"": 3.0}",663.834,#556B2F,triclinic,{45},424.0
Maghagendorfite,Na2MgFe2+Fe3+(PO4)3,"{""Na"": 2.0, ""Mg"": 1.0, ""Fe"": 2.0, ""P"": 3.0, ""O"": 12.0}",466.885,#556B2F,unknown,{34},564.0
Maghrebite,MgAl2(AsO4)2(OH)2·8H2O,"{""Mg"": 1.0, ""Al"": 2.0, ""As"": 2.0, ""O"": 18.0, ""H"": 18.0}",534.239,#FFFFFF,triclinic,{47},1998.0
Magnanelliite,K3Fe3+2(SO4)4(OH)(H2O)2,"{""K"": 3.0, ""Fe"": 2.0, ""S"": 4.0, ""O"": 19.0, ""H"": 5.0}",666.245,#556B2F,monoclinic,{47},1998.0
Magneliite,Ti3+2Ti4+2O7,"{""Ti"": 4.0, ""O"": 7.0}",303.461,#FFFFFF,triclinic,{3},48.0
Magnesioalterite,Mg2Fe3+4(SO4)4(C2O4)2(OH)4·17H2O,"{""Mg"": 2.0, ""Fe"": 4.0, ""S"": 4.0, ""O"": 45.0, ""C"": 4.0, ""H"": 38.0}",1206.533,#556B2F,monoclinic,{53},117.0
Magnesio-arfvedsonite,NaNa2(Mg4Fe3+)Si8O22(OH)2,"{""Na"": 3.0, ""Mg"": 4.0, ""Fe"": 1.0, ""Si"": 8.0, ""O"": 24.0, ""H"": 2.0}",832.707,#556B2F,monoclinic,"{17,35,36}",1068.0
Magnesioaubertite,MgAl(SO4)2Cl·14H2O,"{""Mg"": 1.0, ""Al"": 1.0, ""S"": 2.0, ""O"": 22.0, ""Cl"": 1.0, ""H"": 28.0}",531.059,#FFFFFF,triclinic,{45},424.0
Magnesiobeltrandoite-2N3S,(Mg6Al2)(Al18Fe3+2)O38(OH)2,"{""Mg"": 6.0, ""Al"": 20.0, ""Fe"": 2.0, ""O"": 40.0, ""H"": 2.0}",1439.136,#556B2F,hexagonal,{26},250.0
Magnesiocarpholite,MgAl2Si2O6(OH)4,"{""Mg"": 1.0, ""Al"": 2.0, ""Si"": 2.0, ""O"": 10.0, ""H"": 4.0}",298.461,#FFFFFF,orthorhombic,{40},319.0
Magnesiochloritoid,MgAl2O(SiO4)(OH)2,"{""Mg"": 1.0, ""Al"": 2.0, ""O"": 7.0, ""Si"": 1.0, ""H"": 2.0}",220.363,#FFFFFF,monoclinic,"{39,40}",389.0
Magnesiochromite,MgCr2O4,"{""Mg"": 1.0, ""Cr"": 2.0, ""O"": 4.0}",192.293,#228B22,orthorhombic,"{5,6,7,8,26,37,38,51}",1136.0
Magnesiocopiapite,MgFe3+4(SO4)6(OH)2·20H2O,"{""Mg"": 1.0, ""Fe"": 4.0, ""S"": 6.0, ""O"": 46.0, ""H"": 42.0}",1218.335,#556B2F,triclinic,"{45,47,50,54}",2929.0
Magnesiocoulsonite,MgV2O4,"{""Mg"": 1.0, ""V"": 2.0, ""O"": 4.0}",190.185,#FFFFFF,cubic,{40},319.0
Magnesiodumortierite,MgAl6BSi3O17(OH),"{""Mg"": 1.0, ""Al"": 6.0, ""B"": 1.0, ""Si"": 3.0, ""O"": 18.0, ""H"": 1.0}",570.252,#FFFFFF,orthorhombic,{34},564.0
Magnesioferrite,MgFe3+2O4,"{""Mg"": 1.0, ""Fe"": 2.0, ""O"": 4.0}",199.991,#8B4513,cubic,"{31,36,45,50,51,54}",1706.0
Magnesiofluckite,CaMg(AsO3OH)2(H2O)2,"{""Ca"": 1.0, ""Mg"": 1.0, ""As"": 2.0, ""O"": 10.0, ""H"": 6.0}",380.265,#FFFFFF,triclinic,{47},1998.0
Magnesio-fluoro-arfvedsonite,NaNa2(Mg4Fe3+)Si8O22F2,"{""Na"": 3.0, ""Mg"": 4.0, ""Fe"": 1.0, ""Si"": 8.0, ""O"": 22.0, ""F"": 2.0}",836.689,#556B2F,monoclinic,"{17,35,36}",1068.0
Magnesio-fluoro-hastingsite,NaCa2(Mg4Fe3+)(Si6Al2)O22F2,"{""Na"": 1.0, ""Ca"": 2.0, ""Mg"": 4.0, ""Fe"": 1.0, ""Si"": 6.0, ""Al"": 2.0, ""O"": 22.0, ""F"": 2.0}",868.659,#556B2F,monoclinic,"{19,20,26,31,34}",1358.0
Magnesio-hastingsite,NaCa2(Mg4Fe3+)(Si6Al2)O22(OH)2,"{""Na"": 1.0, ""Ca"": 2.0, ""Mg"": 4.0, ""Fe"": 1.0, ""Si"": 6.0, ""Al"": 2.0, ""O"": 24.0, ""H"": 2.0}",864.677,#556B2F,monoclinic,"{8,10,16,22,26,35,36}",1797.0
Magnesiohatertite,NaNaCa(MgFe3+)(AsO4)3,"{""Na"": 2.0, ""Ca"": 1.0, ""Mg"": 1.0, ""Fe"": 1.0, ""As"": 3.0, ""O"": 12.0}",582.962,#556B2F,monoclinic,{45},424.0
Magnesiohogbomite-6N12S,Mg5Al11TiO23(OH),"{""Mg"": 5.0, ""Al"": 11.0, ""Ti"": 1.0, ""O"": 24.0, ""H"": 1.0}",851.178,#FFFFFF,hexagonal,{36},291.0
Magnesiohulsite,Mg2Fe3+O2(BO3),"{""Mg"": 2.0, ""Fe"": 1.0, ""O"": 5.0, ""B"": 1.0}",195.26,#556B2F,monoclinic,{23},398.0
Magnesiokoritnigite,Mg(AsO3OH)·H2O,"{""Mg"": 1.0, ""As"": 1.0, ""O"": 5.0, ""H"": 3.0}",182.246,#FFFFFF,triclinic,{47},1998.0
Magnesioleydetite,Mg(UO2)(SO4)2·11H2O,"{""Mg"": 1.0, ""U"": 1.0, ""O"": 21.0, ""S"": 2.0, ""H"": 22.0}",684.61,#FFFFFF,monoclinic,{47},1998.0
Magnesio-lucchesiite,CaMg3Al6(Si6O18)(BO3)3(OH)3O,"{""Ca"": 1.0, ""Mg"": 3.0, ""Al"": 6.0, ""Si"": 6.0, ""O"": 31.0, ""B"": 3.0, ""H"": 3.0}",974.818,#FFFFFF,hexagonal,{19},143.0
Magnesiopascoite,Ca2MgV5+10O28·16H2O,"{""Ca"": 2.0, ""Mg"": 1.0, ""V"": 10.0, ""O"": 44.0, ""H"": 32.0}",1350.093,#FFFFFF,monoclinic,"{47,55}",2262.0
Magnesioqingheiite,Na2Mg(MgAl)(PO4)3,"{""Na"": 2.0, ""Mg"": 2.0, ""Al"": 1.0, ""P"": 3.0, ""O"": 12.0}",406.482,#FFFFFF,monoclinic,{},1.0
Magnesiotaaffeite-2N2S,Mg3BeAl8O16,"{""Mg"": 3.0, ""Be"": 1.0, ""Al"": 8.0, ""O"": 16.0}",553.7672,#FFFFFF,hexagonal,"{34,40}",883.0
Magnesiotaaffeite-6N3S,Mg2BeAl6O12,"{""Mg"": 2.0, ""Be"": 1.0, ""Al"": 6.0, ""O"": 12.0}",411.5022,#FFFFFF,hexagonal,"{34,40}",883.0
Magnesiovesuvianite,Ca19Mg(Al11Mg)Si18O69(OH)9,"{""Ca"": 19.0, ""Mg"": 2.0, ""Al"": 11.0, ""Si"": 18.0, ""O"": 78.0, ""H"": 9.0}",2869.418,#FFFFFF,tetragonal,"{7,13}",190.0
Magnesiovoltaite,K2Mg5Fe3+3Al(SO4)12·18H2O,"{""K"": 2.0, ""Mg"": 5.0, ""Fe"": 3.0, ""Al"": 1.0, ""S"": 12.0, ""O"": 66.0, ""H"": 36.0}",1871.18,#556B2F,cubic,"{45,47}",2422.0
Magnesite,Mg(CO3),"{""Mg"": 1.0, ""C"": 1.0, ""O"": 3.0}",84.313,#FFFFFF,hexagonal,"{13,23,25,26,36,38,39,40,44,47,49}",3799.0
Magnetite,Fe2+Fe3+2O4,"{""Fe"": 3.0, ""O"": 4.0}",231.531,#8B4513,cubic,"{1,4,5,6,8,15,19,20,21,23,26,36,37,38,40,44,45,47,49}",4771.0
Magnetoplumbite,PbFe3+12O19,"{""Pb"": 1.0, ""Fe"": 12.0, ""O"": 19.0}",1181.321,#8B4513,hexagonal,{32},412.0
Magnioursilite,Mg4(UO2)4(Si2O5)5(OH)6·20H2O,"{""Mg"": 4.0, ""U"": 4.0, ""O"": 59.0, ""Si"": 10.0, ""H"": 46.0}",2320.499,#FFFFFF,orthorhombic,{47},1998.0
Magnolite,Hg1+2(Te4+O3),"{""Hg"": 2.0, ""Te"": 1.0, ""O"": 3.0}",576.777,#FFFFFF,orthorhombic,{47},1998.0
Magselite,[Mg(H2O)6](Se4+O3),"{""Mg"": 1.0, ""H"": 12.0, ""O"": 9.0, ""Se"": 1.0}",259.363,#FFFFFF,hexagonal,{},1.0
Maikainite,Cu10Fe3MoGe3S16,"{""Cu"": 10.0, ""Fe"": 3.0, ""Mo"": 1.0, ""Ge"": 3.0, ""S"": 16.0}",1629.795,#DAA520,cubic,{33},797.0
Majakite,PdNiAs,"{""Pd"": 1.0, ""Ni"": 1.0, ""As"": 1.0}",240.035,#7FFF00,hexagonal,"{33,37}",932.0
Majindeite,Mg2Mo3O8,"{""Mg"": 2.0, ""Mo"": 3.0, ""O"": 8.0}",464.452,#FFFFFF,hexagonal,{6},205.0
Majorite,Mg3(MgSi)(SiO4)3,"{""Mg"": 4.0, ""Si"": 4.0, ""O"": 12.0}",401.548,#FFFFFF,cubic,"{6,26,39}",525.0
Makarochkinite,Ca4[Fe2+8Fe3+2Ti2]O4[Si8Be2Al2O36],"{""Ca"": 4.0, ""Fe"": 10.0, ""Ti"": 2.0, ""O"": 40.0, ""Si"": 8.0, ""Be"": 2.0, ""Al"": 2.0}",1751.1244,#556B2F,triclinic,{40},319.0
Makatite,Na2Si4O8(OH)2·4H2O,"{""Na"": 2.0, ""Si"": 4.0, ""O"": 14.0, ""H"": 10.0}",392.386,#FFFFFF,monoclinic,"{25,35}",936.0
Makinenite,NiSe,"{""Ni"": 1.0, ""Se"": 1.0}",137.664,#7FFF00,hexagonal,{33},797.0
Makotoite,Ag12(Cu3Au)S8,"{""Ag"": 12.0, ""Cu"": 3.0, ""Au"": 1.0, ""S"": 8.0}",1938.528,#A9A9A9,hexagonal,{33},797.0
Malachite,Cu2(CO3)(OH)2,"{""Cu"": 2.0, ""C"": 1.0, ""O"": 5.0, ""H"": 2.0}",221.114,#FFFFFF,monoclinic,"{47,53}",2115.0
Malanite,Cu1+(Ir3+Pt4+)S4,"{""Cu"": 1.0, ""Ir"": 1.0, ""Pt"": 1.0, ""S"": 4.0}",579.086,#A9A9A9,cubic,"{12,26,33,37}",1311.0
Maldonite,Au2Bi,"{""Au"": 2.0, ""Bi"": 1.0}",602.92,#FFD700,cubic,{33},797.0
Maleevite,BaB2Si2O8,"{""Ba"": 1.0, ""B"": 2.0, ""Si"": 2.0, ""O"": 8.0}",343.112,#FFFFFF,orthorhombic,{35},726.0
Maletoyvayamite,Au3Se4Te6,"{""Au"": 3.0, ""Se"": 4.0, ""Te"": 6.0}",1672.394,#FFD700,triclinic,{33},797.0
Malhmoodite,Fe2+Zr(PO4)2·4H2O,"{""Fe"": 1.0, ""Zr"": 1.0, ""P"": 2.0, ""O"": 12.0, ""H"": 8.0}",409.069,#556B2F,triclinic,"{22,32}",659.0
Malinkoite,NaBSiO4,"{""Na"": 1.0, ""B"": 1.0, ""Si"": 1.0, ""O"": 4.0}",125.881,#FFFFFF,hexagonal,{35},726.0
Malladrite,Na2SiF6,"{""Na"": 2.0, ""Si"": 1.0, ""F"": 6.0}",188.053,#FFFFFF,hexagonal,"{45,50,54}",931.0
Mallestigite,Pb3Sb(SO4)(AsO4)(OH)6·3H2O,"{""Pb"": 3.0, ""Sb"": 1.0, ""S"": 1.0, ""O"": 17.0, ""As"": 1.0, ""H"": 12.0}",1134.421,#FFFFFF,hexagonal,"{47,56}",2141.0
Malyshevite,PdCuBiS3,"{""Pd"": 1.0, ""Cu"": 1.0, ""Bi"": 1.0, ""S"": 3.0}",475.126,#A9A9A9,orthorhombic,{33},797.0