name,formula,elements,density,color,crystal_system,dna
Quijarroite,Cu6HgPb2Bi4Se12,"{""Cu"": 6.0, ""Hg"": 1.0, ""Pb"": 2.0, ""Bi"": 4.0, ""Se"": 12.0}",2779.73,#FFFFFF,orthorhombic,"{""system"": ""orthorhombic"", ""scale"": [0.8, 1.0, 1.2], ""optical"": {""transparent"": 1, ""refraction"": 1.5, ""birefringence"": 0.01}}"
Quintinite,Mg4Al2(OH)12(CO3)·3H2O,"{""Mg"": 4.0, ""Al"": 2.0, ""O"": 18.0, ""H"": 18.0, ""C"": 1.0}",469.35,#FFFFFF,hexagonal,"{""system"": ""hexagonal"", ""scale"": [1.0, 1.0, 1.6], ""optical"": {""transparent"": 1, ""refraction"": 1.5, ""birefringence"": 0.01}}"
Qusongite,WC,"{""W"": 1.0, ""C"": 1.0}",195.85,#FFFFFF,hexagonal,"{""system"": ""hexagonal"", ""scale"": [1.0, 1.0, 1.6], ""optical"": {""transparent"": 1, ""refraction"": 1.5, ""birefringence"": 0.01}}"
Raadeite,Mg7(PO4)2(OH)8,"{""Mg"": 7.0, ""P"": 2.0, ""O"": 16.0, ""H"": 8.0}",496.17,#FFFFFF,monoclinic,"{""system"": ""monoclinic"", ""scale"": [0.7, 1.0, 1.3], ""optical"": {""transparent"": 1, ""refraction"": 1.5, ""birefringence"": 0.01}}"
Rabbittite,Ca3Mg3(UO2)2(CO3)6(OH)4·18H2O,"{""Ca"": 3.0, ""Mg"": 3.0, ""U"": 2.0, ""O"": 44.0, ""C"": 6.0, ""H"": 40.0}",1485.61,#FFFFFF,monoclinic,"{""system"": ""monoclinic"", ""scale"": [0.7, 1.0, 1.3], ""optical"": {""transparent"": 1, ""refraction"": 1.5, ""birefringence"": 0.01}}"
Rabejacite,Ca2[(UO2)4O4(SO4)2](H2O)8,"{""Ca"": 2.0, ""U"": 4.0, ""O"": 28.0, ""S"": 2.0, ""H"": 16.0}",1560.53,#FFFFFF,orthorhombic,"{""system"": ""orthorhombic"", ""scale"": [0.8, 1.0, 1.2], ""optical"": {""transparent"": 1, ""refraction"": 1.5, ""birefringence"": 0.01}}"
Raberite,Tl5Ag4As6SbS15,"{""Tl"": 5.0, ""Ag"": 4.0, ""As"": 6.0, ""Sb"": 1.0, ""S"": 15.0}",2505.56,#FFD700,triclinic,"{""system"": ""triclinic"", ""scale"": [0.7, 1.0, 1.3], ""optical"": {""transparent"": 0, ""refraction"": 0.0, ""birefringence"": 0.0}}"
Radekskodaite-(Ce),(CaCe5)(Al4Fe2+)[Si2O7][SiO4]5O(OH)3,"{""Ca"": 1.0, ""Ce"": 5.0, ""Al"": 4.0, ""Fe"": 1.0, ""Si"": 7.0, ""O"": 31.0, ""H"": 3.0}",1600.1,#556B2F,monoclinic,"{""system"": ""monoclinic"", ""scale"": [0.7, 1.0, 1.3], ""optical"": {""transparent"": 0, ""refraction"": 0.0, ""birefringence"": 0.0}}"
Radekskodaite-(La),(CaLa5)(Al4Fe2+)[Si2O7][SiO4]5O(OH)3,"{""Ca"": 1.0, ""La"": 5.0, ""Al"": 4.0, ""Fe"": 1.0, ""Si"": 7.0, ""O"": 31.0, ""H"": 3.0}",1594.05,#556B2F,monoclinic,"{""system"": ""monoclinic"", ""scale"": [0.7, 1.0, 1.3], ""optical"": {""transparent"": 0, ""refraction"": 0.0, ""birefringence"": 0.0}}"
Radovanite,Cu2Fe3+[As5+O4][As3+O2(OH)]2·H2O,"{""Cu"": 2.0, ""Fe"": 1.0, ""As"": 3.0, ""O"": 11.0, ""H"": 4.0}",587.74,#556B2F,orthorhombic,"{""system"": ""orthorhombic"", ""scale"": [0.8, 1.0, 1.2], ""optical"": {""transparent"": 0, ""refraction"": 0.0, ""birefringence"": 0.0}}"
Radtkeite,Hg3S2ClI,"{""Hg"": 3.0, ""S"": 2.0, ""Cl"": 1.0, ""I"": 1.0}",828.24,#A9A9A9,monoclinic,"{""system"": ""monoclinic"", ""scale"": [0.7, 1.0, 1.3], ""optical"": {""transparent"": 0, ""refraction"": 0.0, ""birefringence"": 0.0}}"
Radvaniceite,GeS2,"{""Ge"": 1.0, ""S"": 2.0}",136.75,#A9A9A9,monoclinic,"{""system"": ""monoclinic"", ""scale"": [0.7, 1.0, 1.3], ""optical"": {""transparent"": 0, ""refraction"": 0.0, ""birefringence"": 0.0}}"
Raguinite,TlFeS2,"{""Tl"": 1.0, ""Fe"": 1.0, ""S"": 2.0}",324.35,#DAA520,monoclinic,"{""system"": ""monoclinic"", ""scale"": [0.7, 1.0, 1.3], ""optical"": {""transparent"": 0, ""refraction"": 0.0, ""birefringence"": 0.0}}"
Raisaite,CuMg[Te6+O4(OH)2]·6H2O,"{""Cu"": 1.0, ""Mg"": 1.0, ""Te"": 1.0, ""O"": 12.0, ""H"": 14.0}",421.57,#FFFFFF,monoclinic,"{""system"": ""monoclinic"", ""scale"": [0.7, 1.0, 1.3], ""optical"": {""transparent"": 1, ""refraction"": 1.5, ""birefringence"": 0.01}}"
Rajite,CuTe4+2O5,"{""Cu"": 1.0, ""Te"": 2.0, ""O"": 5.0}",398.75,#00BFFF,monoclinic,"{""system"": ""monoclinic"", ""scale"": [0.7, 1.0, 1.3], ""optical"": {""transparent"": 0, ""refraction"": 0.0, ""birefringence"": 0.0}}"
Rakovanite,(NH4)3Na3[V10O28]·12H2O,"{""N"": 3.0, ""H"": 36.0, ""Na"": 3.0, ""V"": 10.0, ""O"": 40.0}",1296.69,#FFFFFF,monoclinic,"{""system"": ""monoclinic"", ""scale"": [0.7, 1.0, 1.3], ""optical"": {""transparent"": 1, ""refraction"": 1.5, ""birefringence"": 0.01}}"
Ramaccioniite,Cu4[SeO4](OH)6,"{""Cu"": 4.0, ""Se"": 1.0, ""O"": 10.0, ""H"": 6.0}",499.21,#FFFFFF,monoclinic,"{""system"": ""monoclinic"", ""scale"": [0.7, 1.0, 1.3], ""optical"": {""transparent"": 1, ""refraction"": 1.5, ""birefringence"": 0.01}}"
Ramanite-(Cs),CsB5O6(OH)4·2H2O,"{""Cs"": 1.0, ""B"": 5.0, ""O"": 12.0, ""H"": 8.0}",387.02,#FFFFFF,monoclinic,"{""system"": ""monoclinic"", ""scale"": [0.7, 1.0, 1.3], ""optical"": {""transparent"": 1, ""refraction"": 1.5, ""birefringence"": 0.01}}"
Ramanite-(Rb),RbB5O6(OH)4·2H2O,"{""Rb"": 1.0, ""B"": 5.0, ""O"": 12.0, ""H"": 8.0}",339.58,#FFFFFF,orthorhombic,"{""system"": ""orthorhombic"", ""scale"": [0.8, 1.0, 1.2], ""optical"": {""transparent"": 1, ""refraction"": 1.5, ""birefringence"": 0.01}}"
Rameauite,K2Ca(UO2)6O6(OH)4·6H2O,"{""K"": 2.0, ""Ca"": 1.0, ""U"": 6.0, ""O"": 28.0, ""H"": 16.0}",2010.59,#FFFFFF,monoclinic,"{""system"": ""monoclinic"", ""scale"": [0.7, 1.0, 1.3], ""optical"": {""transparent"": 1, ""refraction"": 1.5, ""birefringence"": 0.01}}"
Rammelsbergite,NiAs2,"{""Ni"": 1.0, ""As"": 2.0}",208.53,#7FFF00,orthorhombic,"{""system"": ""orthorhombic"", ""scale"": [0.8, 1.0, 1.2], ""optical"": {""transparent"": 0, ""refraction"": 0.0, ""birefringence"": 0.0}}"
Ramsbeckite,Cu15(SO4)4(OH)22·6H2O,"{""Cu"": 15.0, ""S"": 4.0, ""O"": 44.0, ""H"": 34.0}",1819.76,#FFFFFF,monoclinic,"{""system"": ""monoclinic"", ""scale"": [0.7, 1.0, 1.3], ""optical"": {""transparent"": 1, ""refraction"": 1.5, ""birefringence"": 0.01}}"
Rankinite,Ca3Si2O7,"{""Ca"": 3.0, ""Si"": 2.0, ""O"": 7.0}",288.42,#FFFFFF,monoclinic,"{""system"": ""monoclinic"", ""scale"": [0.7, 1.0, 1.3], ""optical"": {""transparent"": 1, ""refraction"": 1.5, ""birefringence"": 0.01}}"
Ransomite,CuFe3+2(SO4)4·6H2O,"{""Cu"": 1.0, ""Fe"": 2.0, ""S"": 4.0, ""O"": 22.0, ""H"": 12.0}",667.59,#556B2F,monoclinic,"{""system"": ""monoclinic"", ""scale"": [0.7, 1.0, 1.3], ""optical"": {""transparent"": 0, ""refraction"": 0.0, ""birefringence"": 0.0}}"
Ranunculite,Al(UO2)(PO3OH)(OH)3·4H2O,"{""Al"": 1.0, ""U"": 1.0, ""O"": 13.0, ""P"": 1.0, ""H"": 12.0}",516.08,#FFFFFF,monoclinic,"{""system"": ""monoclinic"", ""scale"": [0.7, 1.0, 1.3], ""optical"": {""transparent"": 1, ""refraction"": 1.5, ""birefringence"": 0.01}}"
Rapidcreekite,Ca2(SO4)(CO3)·4H2O,"{""Ca"": 2.0, ""S"": 1.0, ""O"": 11.0, ""C"": 1.0, ""H"": 8.0}",308.29,#FFFFFF,orthorhombic,"{""system"": ""orthorhombic"", ""scale"": [0.8, 1.0, 1.2], ""optical"": {""transparent"": 1, ""refraction"": 1.5, ""birefringence"": 0.01}}"
Rappoldite,PbCo2(AsO4)2·2H2O,"{""Pb"": 1.0, ""Co"": 2.0, ""As"": 2.0, ""O"": 10.0, ""H"": 4.0}",638.93,#FFFFFF,triclinic,"{""system"": ""triclinic"", ""scale"": [0.7, 1.0, 1.3], ""optical"": {""transparent"": 1, ""refraction"": 1.5, ""birefringence"": 0.01}}"
Rasmussenite,Ca(C2H3O3)2·3H2O,"{""Ca"": 1.0, ""C"": 4.0, ""H"": 12.0, ""O"": 9.0}",244.22,#FFFFFF,triclinic,"{""system"": ""triclinic"", ""scale"": [0.7, 1.0, 1.3], ""optical"": {""transparent"": 1, ""refraction"": 1.5, ""birefringence"": 0.01}}"
Raspite,Pb(WO4),"{""Pb"": 1.0, ""W"": 1.0, ""O"": 4.0}",455.04,#FFFFFF,monoclinic,"{""system"": ""monoclinic"", ""scale"": [0.7, 1.0, 1.3], ""optical"": {""transparent"": 1, ""refraction"": 1.5, ""birefringence"": 0.01}}"
Rasvumite,KFe2S3,"{""K"": 1.0, ""Fe"": 2.0, ""S"": 3.0}",246.98,#DAA520,orthorhombic,"{""system"": ""orthorhombic"", ""scale"": [0.8, 1.0, 1.2], ""optical"": {""transparent"": 0, ""refraction"": 0.0, ""birefringence"": 0.0}}"
Rathite-IV,Pb3As5S10,"{""Pb"": 3.0, ""As"": 5.0, ""S"": 10.0}",1316.8,#708090,,"{""system"": """", ""scale"": [1.0, 1.0, 1.0], ""optical"": {""transparent"": 0, ""refraction"": 0.0, ""birefringence"": 0.0}}"
Rauchite,Ni(UO2)2(AsO4)2·10H2O,"{""Ni"": 1.0, ""U"": 2.0, ""O"": 22.0, ""As"": 2.0, ""H"": 20.0}",1056.75,#FFFFFF,triclinic,"{""system"": ""triclinic"", ""scale"": [0.7, 1.0, 1.3], ""optical"": {""transparent"": 1, ""refraction"": 1.5, ""birefringence"": 0.01}}"
Rauenthalite,Ca3(AsO4)2·10H2O,"{""Ca"": 3.0, ""As"": 2.0, ""O"": 18.0, ""H"": 20.0}",578.24,#FFFFFF,triclinic,"{""system"": ""triclinic"", ""scale"": [0.7, 1.0, 1.3], ""optical"": {""transparent"": 1, ""refraction"": 1.5, ""birefringence"": 0.01}}"
Rauvite,Ca(UO2)2V10O28·16H2O,"{""Ca"": 1.0, ""U"": 2.0, ""O"": 48.0, ""V"": 10.0, ""H"": 32.0}",1825.8,#FFFFFF,,"{""system"": """", ""scale"": [1.0, 1.0, 1.0], ""optical"": {""transparent"": 1, ""refraction"": 1.5, ""birefringence"": 0.01}}"
Ravatite,C14H10,"{""C"": 14.0, ""H"": 10.0}",178.22,#FFFFFF,monoclinic,"{""system"": ""monoclinic"", ""scale"": [0.7, 1.0, 1.3], ""optical"": {""transparent"": 1, ""refraction"": 1.5, ""birefringence"": 0.01}}"
Raydemarkite,MoO3·H2O,"{""Mo"": 1.0, ""O"": 4.0, ""H"": 2.0}",161.97,#FFFFFF,triclinic,"{""system"": ""triclinic"", ""scale"": [0.7, 1.0, 1.3], ""optical"": {""transparent"": 1, ""refraction"": 1.5, ""birefringence"": 0.01}}"
Realgar,AsS,"{""As"": 1.0, ""S"": 1.0}",106.98,#FFD700,monoclinic,"{""system"": ""monoclinic"", ""scale"": [0.7, 1.0, 1.3], ""optical"": {""transparent"": 0, ""refraction"": 0.0, ""birefringence"": 0.0}}"
Rebulite,Tl5Sb5As8S22,"{""Tl"": 5.0, ""Sb"": 5.0, ""As"": 8.0, ""S"": 22.0}",2935.38,#FFD700,monoclinic,"{""system"": ""monoclinic"", ""scale"": [0.7, 1.0, 1.3], ""optical"": {""transparent"": 0, ""refraction"": 0.0, ""birefringence"": 0.0}}"
Reckibachite,Ag2Pb12As14Sb4S40,"{""Ag"": 2.0, ""Pb"": 12.0, ""As"": 14.0, ""Sb"": 4.0, ""S"": 40.0}",5520.46,#708090,monoclinic,"{""system"": ""monoclinic"", ""scale"": [0.7, 1.0, 1.3], ""optical"": {""transparent"": 0, ""refraction"": 0.0, ""birefringence"": 0.0}}"
Redgillite,Cu6(SO4)(OH)10·H2O,"{""Cu"": 6.0, ""S"": 1.0, ""O"": 15.0, ""H"": 12.0}",665.46,#FFFFFF,monoclinic,"{""system"": ""monoclinic"", ""scale"": [0.7, 1.0, 1.3], ""optical"": {""transparent"": 1, ""refraction"": 1.5, ""birefringence"": 0.01}}"
Redingtonite,Fe2+Cr2(SO4)4·22H2O,"{""Fe"": 1.0, ""Cr"": 2.0, ""S"": 4.0, ""O"": 38.0, ""H"": 44.0}",940.44,#556B2F,,"{""system"": """", ""scale"": [1.0, 1.0, 1.0], ""optical"": {""transparent"": 0, ""refraction"": 0.0, ""birefringence"": 0.0}}"
Redledgeite,Ba(Ti6Cr3+2)O16,"{""Ba"": 1.0, ""Ti"": 6.0, ""Cr"": 2.0, ""O"": 16.0}",784.55,#FFFFFF,tetragonal,"{""system"": ""tetragonal"", ""scale"": [1.0, 1.0, 1.4], ""optical"": {""transparent"": 1, ""refraction"": 1.5, ""birefringence"": 0.01}}"
Redondite,Al(PO4)·2H2O,"{""Al"": 1.0, ""P"": 1.0, ""O"": 6.0, ""H"": 4.0}",157.98,#FFFFFF,,"{""system"": """", ""scale"": [1.0, 1.0, 1.0], ""optical"": {""transparent"": 1, ""refraction"": 1.5, ""birefringence"": 0.01}}"
Reedmergnerite,NaBSi3O8,"{""Na"": 1.0, ""B"": 1.0, ""Si"": 3.0, ""O"": 8.0}",246.07,#FFFFFF,triclinic,"{""system"": ""triclinic"", ""scale"": [0.7, 1.0, 1.3], ""optical"": {""transparent"": 1, ""refraction"": 1.5, ""birefringence"": 0.01}}"
Reevesite,Ni6Fe3+2(OH)16(CO3)·4H2O,"{""Ni"": 6.0, ""Fe"": 2.0, ""O"": 23.0, ""H"": 24.0, ""C"": 1.0}",868.04,#556B2F,hexagonal,"{""system"": ""hexagonal"", ""scale"": [1.0, 1.0, 1.6], ""optical"": {""transparent"": 0, ""refraction"": 0.0, ""birefringence"": 0.0}}"
Refikite,C20H34O2,"{""C"": 20.0, ""H"": 34.0, ""O"": 2.0}",306.47,#FFFFFF,orthorhombic,"{""system"": ""orthorhombic"", ""scale"": [0.8, 1.0, 1.2], ""optical"": {""transparent"": 1, ""refraction"": 1.5, ""birefringence"": 0.01}}"
Regerite,KFe6(PO4)4(OH)7(H2O)6·4H2O,"{""K"": 1.0, ""Fe"": 6.0, ""P"": 4.0, ""O"": 33.0, ""H"": 27.0}",1053.3,#556B2F,monoclinic,"{""system"": ""monoclinic"", ""scale"": [0.7, 1.0, 1.3], ""optical"": {""transparent"": 0, ""refraction"": 0.0, ""birefringence"": 0.0}}"
Reichenbachite,Cu5(PO4)2(OH)4,"{""Cu"": 5.0, ""P"": 2.0, ""O"": 12.0, ""H"": 4.0}",575.72,#FFFFFF,monoclinic,"{""system"": ""monoclinic"", ""scale"": [0.7, 1.0, 1.3], ""optical"": {""transparent"": 1, ""refraction"": 1.5, ""birefringence"": 0.01}}"
Reidite,Zr(SiO4),"{""Zr"": 1.0, ""Si"": 1.0, ""O"": 4.0}",183.31,#FFFFFF,tetragonal,"{""system"": ""tetragonal"", ""scale"": [1.0, 1.0, 1.4], ""optical"": {""transparent"": 1, ""refraction"": 1.5, ""birefringence"": 0.01}}"
Reinhardbraunsite,Ca5(SiO4)2(OH)2,"{""Ca"": 5.0, ""Si"": 2.0, ""O"": 10.0, ""H"": 2.0}",418.6,#FFFFFF,monoclinic,"{""system"": ""monoclinic"", ""scale"": [0.7, 1.0, 1.3], ""optical"": {""transparent"": 1, ""refraction"": 1.5, ""birefringence"": 0.01}}"
Relianceite-(K),K4Mg(V4+O)2(C2O4)(PO3OH)4(H2O)10,"{""K"": 4.0, ""Mg"": 1.0, ""V"": 2.0, ""O"": 32.0, ""C"": 2.0, ""P"": 4.0, ""H"": 24.0}",966.68,#FFFFFF,monoclinic,"{""system"": ""monoclinic"", ""scale"": [0.7, 1.0, 1.3], ""optical"": {""transparent"": 1, ""refraction"": 1.5, ""birefringence"": 0.01}}"
Renardite,Pb(UO2)4(PO4)2(OH)4·7H2O,"{""Pb"": 1.0, ""U"": 4.0, ""O"": 27.0, ""P"": 2.0, ""H"": 18.0}",1671.4,#FFFFFF,,"{""system"": """", ""scale"": [1.0, 1.0, 1.0], ""optical"": {""transparent"": 1, ""refraction"": 1.5, ""birefringence"": 0.01}}"
Rengeite,Sr4Ti4ZrO8(Si2O7)2,"{""Sr"": 4.0, ""Ti"": 4.0, ""Zr"": 1.0, ""O"": 22.0, ""Si"": 4.0}",1097.54,#FFFFFF,monoclinic,"{""system"": ""monoclinic"", ""scale"": [0.7, 1.0, 1.3], ""optical"": {""transparent"": 1, ""refraction"": 1.5, ""birefringence"": 0.01}}"
Retgersite,Ni(SO4)·6H2O,"{""Ni"": 1.0, ""S"": 1.0, ""O"": 10.0, ""H"": 12.0}",262.85,#FFFFFF,tetragonal,"{""system"": ""tetragonal"", ""scale"": [1.0, 1.0, 1.4], ""optical"": {""transparent"": 1, ""refraction"": 1.5, ""birefringence"": 0.01}}"
Revdite,Na16Si16O27(OH)26·28H2O,"{""Na"": 16.0, ""Si"": 16.0, ""O"": 81.0, ""H"": 82.0}",2195.94,#FFFFFF,monoclinic,"{""system"": ""monoclinic"", ""scale"": [0.7, 1.0, 1.3], ""optical"": {""transparent"": 1, ""refraction"": 1.5, ""birefringence"": 0.01}}"
Reyerite,Na2Ca14Al2Si22O58(OH)8·6H2O,"{""Na"": 2.0, ""Ca"": 14.0, ""Al"": 2.0, ""Si"": 22.0, ""O"": 72.0, ""H"": 20.0}",2451.2,#FFFFFF,hexagonal,"{""system"": ""hexagonal"", ""scale"": [1.0, 1.0, 1.6], ""optical"": {""transparent"": 1, ""refraction"": 1.5, ""birefringence"": 0.01}}"
Reznitskyite,CaMg(VO4)F,"{""Ca"": 1.0, ""Mg"": 1.0, ""V"": 1.0, ""O"": 4.0, ""F"": 1.0}",198.33,#FFFFFF,monoclinic,"{""system"": ""monoclinic"", ""scale"": [0.7, 1.0, 1.3], ""optical"": {""transparent"": 1, ""refraction"": 1.5, ""birefringence"": 0.01}}"
Rhabdophane-(Ce),Ce(PO4)·H2O,"{""Ce"": 1.0, ""P"": 1.0, ""O"": 5.0, ""H"": 2.0}",253.11,#FFFFFF,hexagonal,"{""system"": ""hexagonal"", ""scale"": [1.0, 1.0, 1.6], ""optical"": {""transparent"": 1, ""refraction"": 1.5, ""birefringence"": 0.01}}"
Rhabdophane-(La),La(PO4)·H2O,"{""La"": 1.0, ""P"": 1.0, ""O"": 5.0, ""H"": 2.0}",251.9,#FFFFFF,,"{""system"": """", ""scale"": [1.0, 1.0, 1.0], ""optical"": {""transparent"": 1, ""refraction"": 1.5, ""birefringence"": 0.01}}"
Rhabdophane-(Nd),Nd(PO4)·H2O,"{""Nd"": 1.0, ""P"": 1.0, ""O"": 5.0, ""H"": 2.0}",257.23,#FFFFFF,,"{""system"": """", ""scale"": [1.0, 1.0, 1.0], ""optical"": {""transparent"": 1, ""refraction"": 1.5, ""birefringence"": 0.01}}"
Rhabdophane-(Y),Y(PO4)·H2O,"{""Y"": 1.0, ""P"": 1.0, ""O"": 5.0, ""H"": 2.0}",201.9,#FFFFFF,hexagonal,"{""system"": ""hexagonal"", ""scale"": [1.0, 1.0, 1.6], ""optical"": {""transparent"": 1, ""refraction"": 1.5, ""birefringence"": 0.01}}"
Rheniite,ReS2,"{""Re"": 1.0, ""S"": 2.0}",250.33,#A9A9A9,triclinic,"{""system"": ""triclinic"", ""scale"": [0.7, 1.0, 1.3], ""optical"": {""transparent"": 0, ""refraction"": 0.0, ""birefringence"": 0.0}}"
Rhodarsenide,Rh2As,"{""Rh"": 2.0, ""As"": 1.0}",280.74,#808080,orthorhombic,"{""system"": ""orthorhombic"", ""scale"": [0.8, 1.0, 1.2], ""optical"": {""transparent"": 0, ""refraction"": 0.0, ""birefringence"": 0.0}}"
Rhodesite,KHCa2Si8O19·5H2O,"{""K"": 1.0, ""H"": 11.0, ""Ca"": 2.0, ""Si"": 8.0, ""O"": 24.0}",739.07,#FFFFFF,orthorhombic,"{""system"": ""orthorhombic"", ""scale"": [0.8, 1.0, 1.2], ""optical"": {""transparent"": 1, ""refraction"": 1.5, ""birefringence"": 0.01}}"
Rhodium,Rh,"{""Rh"": 1.0}",102.91,#FFFFFF,cubic,"{""system"": ""cubic"", ""scale"": [1.0, 1.0, 1.0], ""optical"": {""transparent"": 1, ""refraction"": 1.5, ""birefringence"": 0.0}}"
Rhodizite,KBe4Al4(B11Be)O28,"{""K"": 1.0, ""Be"": 5.0, ""Al"": 4.0, ""B"": 11.0, ""O"": 28.0}",758.98,#FFFFFF,cubic,"{""system"": ""cubic"", ""scale"": [1.0, 1.0, 1.0], ""optical"": {""transparent"": 1, ""refraction"": 1.5, ""birefringence"": 0.0}}"
Rhodplumsite,Rh3Pb2S2,"{""Rh"": 3.0, ""Pb"": 2.0, ""S"": 2.0}",787.25,#708090,hexagonal,"{""system"": ""hexagonal"", ""scale"": [1.0, 1.0, 1.6], ""optical"": {""transparent"": 0, ""refraction"": 0.0, ""birefringence"": 0.0}}"
Rhomboclase,(H5O2)Fe3+(SO4)2·2H2O,"{""H"": 9.0, ""O"": 12.0, ""Fe"": 1.0, ""S"": 2.0}",321.04,#556B2F,orthorhombic,"{""system"": ""orthorhombic"", ""scale"": [0.8, 1.0, 1.2], ""optical"": {""transparent"": 0, ""refraction"": 0.0, ""birefringence"": 0.0}}"
Rhonite,Ca4[Mg8Fe3+2Ti2]O4[Si6Al6O36],"{""Ca"": 4.0, ""Mg"": 8.0, ""Fe"": 2.0, ""Ti"": 2.0, ""O"": 40.0, ""Si"": 6.0, ""Al"": 6.0}",1532.66,#556B2F,triclinic,"{""system"": ""triclinic"", ""scale"": [0.7, 1.0, 1.3], ""optical"": {""transparent"": 0, ""refraction"": 0.0, ""birefringence"": 0.0}}"
Richardsollyite,TlPbAsS3,"{""Tl"": 1.0, ""Pb"": 1.0, ""As"": 1.0, ""S"": 3.0}",582.68,#708090,monoclinic,"{""system"": ""monoclinic"", ""scale"": [0.7, 1.0, 1.3], ""optical"": {""transparent"": 0, ""refraction"": 0.0, ""birefringence"": 0.0}}"
Richelsdorfite,Ca2Cu5Sb5+(AsO4)4(OH)6Cl·6H2O,"{""Ca"": 2.0, ""Cu"": 5.0, ""Sb"": 1.0, ""As"": 4.0, ""O"": 28.0, ""H"": 18.0, ""Cl"": 1.0}",1320.94,#FFFFFF,monoclinic,"{""system"": ""monoclinic"", ""scale"": [0.7, 1.0, 1.3], ""optical"": {""transparent"": 1, ""refraction"": 1.5, ""birefringence"": 0.01}}"
Richterite,Na(NaCa)Mg5Si8O22(OH)2,"{""Na"": 2.0, ""Ca"": 1.0, ""Mg"": 5.0, ""Si"": 8.0, ""O"": 24.0, ""H"": 2.0}",818.35,#FFFFFF,monoclinic,"{""system"": ""monoclinic"", ""scale"": [0.7, 1.0, 1.3], ""optical"": {""transparent"": 1, ""refraction"": 1.5, ""birefringence"": 0.01}}"
Rickturnerite,Pb7O4[Mg(OH)4](OH)Cl3,"{""Pb"": 7.0, ""O"": 9.0, ""Mg"": 1.0, ""H"": 5.0, ""Cl"": 3.0}",1730.1,#FFFFFF,orthorhombic,"{""system"": ""orthorhombic"", ""scale"": [0.8, 1.0, 1.2], ""optical"": {""transparent"": 1, ""refraction"": 1.5, ""birefringence"": 0.01}}"
Riesite,TiO2,"{""Ti"": 1.0, ""O"": 2.0}",79.87,#FFFFFF,monoclinic,"{""system"": ""monoclinic"", ""scale"": [0.7, 1.0, 1.3], ""optical"": {""transparent"": 1, ""refraction"": 1.5, ""birefringence"": 0.01}}"
Rietveldite,Fe(UO2)(SO4)2(H2O)5,"{""Fe"": 1.0, ""U"": 1.0, ""O"": 15.0, ""S"": 2.0, ""H"": 10.0}",608.08,#556B2F,orthorhombic,"{""system"": ""orthorhombic"", ""scale"": [0.8, 1.0, 1.2], ""optical"": {""transparent"": 0, ""refraction"": 0.0, ""birefringence"": 0.0}}"
Rilandite,Cr6SiO11·5H2O (?),"{""Cr"": 6.0, ""Si"": 1.0, ""O"": 16.0, ""H"": 10.0}",606.17,#FFFFFF,,"{""system"": """", ""scale"": [1.0, 1.0, 1.0], ""optical"": {""transparent"": 1, ""refraction"": 1.5, ""birefringence"": 0.01}}"
Rimkorolgite,BaMg5(PO4)4·8H2O,"{""Ba"": 1.0, ""Mg"": 5.0, ""P"": 4.0, ""O"": 24.0, ""H"": 16.0}",782.89,#FFFFFF,monoclinic,"{""system"": ""monoclinic"", ""scale"": [0.7, 1.0, 1.3], ""optical"": {""transparent"": 1, ""refraction"": 1.5, ""birefringence"": 0.01}}"
Ringwoodite,SiMg2O4,"{""Si"": 1.0, ""Mg"": 2.0, ""O"": 4.0}",140.71,#FFFFFF,cubic,"{""system"": ""cubic"", ""scale"": [1.0, 1.0, 1.0], ""optical"": {""transparent"": 1, ""refraction"": 1.5, ""birefringence"": 0.0}}"
Rinkite-(Ce),Ca2(CaCe)Na(NaCa)Ti(Si2O7)2(OF)F2,"{""Ca"": 4.0, ""Ce"": 1.0, ""Na"": 2.0, ""Ti"": 1.0, ""Si"": 4.0, ""O"": 15.0, ""F"": 3.0}",803.65,#FFFFFF,monoclinic,"{""system"": ""monoclinic"", ""scale"": [0.7, 1.0, 1.3], ""optical"": {""transparent"": 1, ""refraction"": 1.5, ""birefringence"": 0.01}}"