name,formula,elements,density,color,crystal_system,dna
Touretite,LiAl4Be4(B11Be)O28,"{""Li"": 1.0, ""Al"": 4.0, ""Be"": 5.0, ""B"": 11.0, ""O"": 28.0}",726.82,#FFFFFF,cubic,"{""system"": ""cubic"", ""scale"": [1.0, 1.0, 1.0], ""optical"": {""transparent"": 1, ""refraction"": 1.5, ""birefringence"": 0.0}}"
Townendite,Na8ZrSi6O18,"{""Na"": 8.0, ""Zr"": 1.0, ""Si"": 6.0, ""O"": 18.0}",731.68,#FFFFFF,hexagonal,"{""system"": ""hexagonal"", ""scale"": [1.0, 1.0, 1.6], ""optical"": {""transparent"": 1, ""refraction"": 1.5, ""birefringence"": 0.01}}"
Trabzonite,Ca4[Si3O9(OH)](OH),"{""Ca"": 4.0, ""Si"": 3.0, ""O"": 11.0, ""H"": 2.0}",422.61,#FFFFFF,orthorhombic,"{""system"": ""orthorhombic"", ""scale"": [0.8, 1.0, 1.2], ""optical"": {""transparent"": 1, ""refraction"": 1.5, ""birefringence"": 0.01}}"
Tranquillityite,Fe2+8Ti3Zr2Si3O24,"{""Fe"": 8.0, ""Ti"": 3.0, ""Zr"": 2.0, ""Si"": 3.0, ""O"": 24.0}",1241.12,#556B2F,hexagonal,"{""system"": ""hexagonal"", ""scale"": [1.0, 1.0, 1.6], ""optical"": {""transparent"": 0, ""refraction"": 0.0, ""birefringence"": 0.0}}"
Transjordanite,Ni2P,"{""Ni"": 2.0, ""P"": 1.0}",148.35,#7FFF00,hexagonal,"{""system"": ""hexagonal"", ""scale"": [1.0, 1.0, 1.6], ""optical"": {""transparent"": 0, ""refraction"": 0.0, ""birefringence"": 0.0}}"
Trattnerite,Fe3+2(Mg3Si12)O30,"{""Fe"": 2.0, ""Mg"": 3.0, ""Si"": 12.0, ""O"": 30.0}",1001.71,#556B2F,hexagonal,"{""system"": ""hexagonal"", ""scale"": [1.0, 1.0, 1.6], ""optical"": {""transparent"": 0, ""refraction"": 0.0, ""birefringence"": 0.0}}"
Treasurite,Ag7Pb6Bi15S30,"{""Ag"": 7.0, ""Pb"": 6.0, ""Bi"": 15.0, ""S"": 30.0}",6094.79,#708090,monoclinic,"{""system"": ""monoclinic"", ""scale"": [0.7, 1.0, 1.3], ""optical"": {""transparent"": 0, ""refraction"": 0.0, ""birefringence"": 0.0}}"
Trebeurdenite,Fe2+2Fe3+4O2(OH)10(CO3)·3H2O,"{""Fe"": 6.0, ""O"": 18.0, ""H"": 16.0, ""C"": 1.0}",651.24,#556B2F,,"{""system"": """", ""scale"": [1.0, 1.0, 1.0], ""optical"": {""transparent"": 0, ""refraction"": 0.0, ""birefringence"": 0.0}}"
Trebiskyite,Na3Mg2[TiV9O28]·22H2O,"{""Na"": 3.0, ""Mg"": 2.0, ""Ti"": 1.0, ""V"": 9.0, ""O"": 50.0, ""H"": 44.0}",1468.27,#FFFFFF,monoclinic,"{""system"": ""monoclinic"", ""scale"": [0.7, 1.0, 1.3], ""optical"": {""transparent"": 1, ""refraction"": 1.5, ""birefringence"": 0.01}}"
Trechmannite,AgAsS2,"{""Ag"": 1.0, ""As"": 1.0, ""S"": 2.0}",246.91,#FFD700,hexagonal,"{""system"": ""hexagonal"", ""scale"": [1.0, 1.0, 1.6], ""optical"": {""transparent"": 0, ""refraction"": 0.0, ""birefringence"": 0.0}}"
Tredouxite,NiSb2O6,"{""Ni"": 1.0, ""Sb"": 2.0, ""O"": 6.0}",398.21,#7FFF00,tetragonal,"{""system"": ""tetragonal"", ""scale"": [1.0, 1.0, 1.4], ""optical"": {""transparent"": 0, ""refraction"": 0.0, ""birefringence"": 0.0}}"
Trembathite,Mg3B7O13Cl,"{""Mg"": 3.0, ""B"": 7.0, ""O"": 13.0, ""Cl"": 1.0}",392.05,#FFFFFF,hexagonal,"{""system"": ""hexagonal"", ""scale"": [1.0, 1.0, 1.6], ""optical"": {""transparent"": 1, ""refraction"": 1.5, ""birefringence"": 0.01}}"
Trevorite,NiFe3+2O4,"{""Ni"": 1.0, ""Fe"": 2.0, ""O"": 4.0}",234.39,#7FFF00,cubic,"{""system"": ""cubic"", ""scale"": [1.0, 1.0, 1.0], ""optical"": {""transparent"": 0, ""refraction"": 0.0, ""birefringence"": 0.0}}"
Triangulite,Al3(UO2)4(PO4)4(OH)5·5H2O,"{""Al"": 3.0, ""U"": 4.0, ""O"": 34.0, ""P"": 4.0, ""H"": 15.0}",1716.06,#FFFFFF,triclinic,"{""system"": ""triclinic"", ""scale"": [0.7, 1.0, 1.3], ""optical"": {""transparent"": 1, ""refraction"": 1.5, ""birefringence"": 0.01}}"
Triazolite,NaCu2(N3C2H2)2(NH3)2Cl3·4H2O,"{""Na"": 1.0, ""Cu"": 2.0, ""N"": 8.0, ""C"": 4.0, ""H"": 18.0, ""Cl"": 3.0, ""O"": 4.0}",498.7,#FFFFFF,orthorhombic,"{""system"": ""orthorhombic"", ""scale"": [0.8, 1.0, 1.2], ""optical"": {""transparent"": 1, ""refraction"": 1.5, ""birefringence"": 0.01}}"
Tridymite,SiO2,"{""Si"": 1.0, ""O"": 2.0}",60.09,#FFFFFF,triclinic,"{""system"": ""triclinic"", ""scale"": [0.7, 1.0, 1.3], ""optical"": {""transparent"": 1, ""refraction"": 1.5, ""birefringence"": 0.01}}"
Trigodomeykite,Cu3As,"{""Cu"": 3.0, ""As"": 1.0}",265.57,#00BFFF,hexagonal,"{""system"": ""hexagonal"", ""scale"": [1.0, 1.0, 1.6], ""optical"": {""transparent"": 0, ""refraction"": 0.0, ""birefringence"": 0.0}}"
Trikalsilite,K2Na(AlSiO4)3,"{""K"": 2.0, ""Na"": 1.0, ""Al"": 3.0, ""Si"": 3.0, ""O"": 12.0}",458.4,#FFFFFF,hexagonal,"{""system"": ""hexagonal"", ""scale"": [1.0, 1.0, 1.6], ""optical"": {""transparent"": 1, ""refraction"": 1.5, ""birefringence"": 0.01}}"
Trimounsite-(Y),Y2Ti2SiO9,"{""Y"": 2.0, ""Ti"": 2.0, ""Si"": 1.0, ""O"": 9.0}",445.65,#FFFFFF,monoclinic,"{""system"": ""monoclinic"", ""scale"": [0.7, 1.0, 1.3], ""optical"": {""transparent"": 1, ""refraction"": 1.5, ""birefringence"": 0.01}}"
Trinepheline,NaAlSiO4,"{""Na"": 1.0, ""Al"": 1.0, ""Si"": 1.0, ""O"": 4.0}",142.06,#FFFFFF,monoclinic,"{""system"": ""monoclinic"", ""scale"": [0.7, 1.0, 1.3], ""optical"": {""transparent"": 1, ""refraction"": 1.5, ""birefringence"": 0.01}}"
Triphylite,LiFe2+(PO4),"{""Li"": 1.0, ""Fe"": 1.0, ""P"": 1.0, ""O"": 4.0}",157.76,#556B2F,orthorhombic,"{""system"": ""orthorhombic"", ""scale"": [0.8, 1.0, 1.2], ""optical"": {""transparent"": 0, ""refraction"": 0.0, ""birefringence"": 0.0}}"
Trippkeite,Cu2+As3+2O4,"{""Cu"": 1.0, ""As"": 2.0, ""O"": 4.0}",277.39,#00BFFF,tetragonal,"{""system"": ""tetragonal"", ""scale"": [1.0, 1.0, 1.4], ""optical"": {""transparent"": 0, ""refraction"": 0.0, ""birefringence"": 0.0}}"
Tripuhyite,Fe3+Sb5+O4,"{""Fe"": 1.0, ""Sb"": 1.0, ""O"": 4.0}",241.61,#8B4513,tetragonal,"{""system"": ""tetragonal"", ""scale"": [1.0, 1.0, 1.4], ""optical"": {""transparent"": 0, ""refraction"": 0.0, ""birefringence"": 0.0}}"
Trogerite,(H3O)(UO2)(AsO4)·3H2O,"{""H"": 9.0, ""O"": 10.0, ""U"": 1.0, ""As"": 1.0}",482.02,#FFFFFF,,"{""system"": """", ""scale"": [1.0, 1.0, 1.0], ""optical"": {""transparent"": 1, ""refraction"": 1.5, ""birefringence"": 0.01}}"
Trogtalite,CoSe2,"{""Co"": 1.0, ""Se"": 2.0}",216.85,#4169E1,cubic,"{""system"": ""cubic"", ""scale"": [1.0, 1.0, 1.0], ""optical"": {""transparent"": 0, ""refraction"": 0.0, ""birefringence"": 0.0}}"
Troilite,FeS,"{""Fe"": 1.0, ""S"": 1.0}",87.91,#DAA520,hexagonal,"{""system"": ""hexagonal"", ""scale"": [1.0, 1.0, 1.6], ""optical"": {""transparent"": 0, ""refraction"": 0.0, ""birefringence"": 0.0}}"
Trolleite,Al4(PO4)3(OH)3,"{""Al"": 4.0, ""P"": 3.0, ""O"": 15.0, ""H"": 3.0}",443.85,#FFFFFF,monoclinic,"{""system"": ""monoclinic"", ""scale"": [0.7, 1.0, 1.3], ""optical"": {""transparent"": 1, ""refraction"": 1.5, ""birefringence"": 0.01}}"
Trona,Na3(HCO3)(CO3)·2H2O,"{""Na"": 3.0, ""H"": 5.0, ""C"": 2.0, ""O"": 8.0}",226.03,#FFFFFF,monoclinic,"{""system"": ""monoclinic"", ""scale"": [0.7, 1.0, 1.3], ""optical"": {""transparent"": 1, ""refraction"": 1.5, ""birefringence"": 0.01}}"
Truscottite,Ca14Si24O58(OH)8·2H2O,"{""Ca"": 14.0, ""Si"": 24.0, ""O"": 68.0, ""H"": 12.0}",2335.38,#FFFFFF,hexagonal,"{""system"": ""hexagonal"", ""scale"": [1.0, 1.0, 1.6], ""optical"": {""transparent"": 1, ""refraction"": 1.5, ""birefringence"": 0.01}}"
Trustedtite,Ni2+Ni3+2Se4,"{""Ni"": 3.0, ""Se"": 4.0}",491.91,#7FFF00,cubic,"{""system"": ""cubic"", ""scale"": [1.0, 1.0, 1.0], ""optical"": {""transparent"": 0, ""refraction"": 0.0, ""birefringence"": 0.0}}"
Tsangpoite,Ca5(PO4)2(SiO4),"{""Ca"": 5.0, ""P"": 2.0, ""O"": 12.0, ""Si"": 1.0}",482.43,#FFFFFF,hexagonal,"{""system"": ""hexagonal"", ""scale"": [1.0, 1.0, 1.6], ""optical"": {""transparent"": 1, ""refraction"": 1.5, ""birefringence"": 0.01}}"
Tsaregorodtsevite,N(CH3)4Si4(SiAl)O12,"{""N"": 1.0, ""C"": 4.0, ""H"": 12.0, ""Si"": 5.0, ""Al"": 1.0, ""O"": 12.0}",433.58,#FFFFFF,orthorhombic,"{""system"": ""orthorhombic"", ""scale"": [0.8, 1.0, 1.2], ""optical"": {""transparent"": 1, ""refraction"": 1.5, ""birefringence"": 0.01}}"
Tschaunerite,(Fe2+)(Fe2+Ti4+)O4,"{""Fe"": 2.0, ""Ti"": 1.0, ""O"": 4.0}",223.57,#8B4513,orthorhombic,"{""system"": ""orthorhombic"", ""scale"": [0.8, 1.0, 1.2], ""optical"": {""transparent"": 0, ""refraction"": 0.0, ""birefringence"": 0.0}}"
Tschermigite,(NH4)Al(SO4)2·12H2O,"{""N"": 1.0, ""H"": 28.0, ""Al"": 1.0, ""S"": 2.0, ""O"": 20.0}",453.33,#FFFFFF,cubic,"{""system"": ""cubic"", ""scale"": [1.0, 1.0, 1.0], ""optical"": {""transparent"": 1, ""refraction"": 1.5, ""birefringence"": 0.0}}"
Tschernichite,CaAl2Si6O16·8H2O,"{""Ca"": 1.0, ""Al"": 2.0, ""Si"": 6.0, ""O"": 24.0, ""H"": 16.0}",662.71,#FFFFFF,monoclinic,"{""system"": ""monoclinic"", ""scale"": [0.7, 1.0, 1.3], ""optical"": {""transparent"": 1, ""refraction"": 1.5, ""birefringence"": 0.01}}"
Tsnigriite,Ag9SbTe3S3,"{""Ag"": 9.0, ""Sb"": 1.0, ""Te"": 3.0, ""S"": 3.0}",1571.57,#A9A9A9,monoclinic,"{""system"": ""monoclinic"", ""scale"": [0.7, 1.0, 1.3], ""optical"": {""transparent"": 0, ""refraction"": 0.0, ""birefringence"": 0.0}}"
Tsugaruite,Pb28As15S50Cl,"{""Pb"": 28.0, ""As"": 15.0, ""S"": 50.0, ""Cl"": 1.0}",8563.85,#708090,orthorhombic,"{""system"": ""orthorhombic"", ""scale"": [0.8, 1.0, 1.2], ""optical"": {""transparent"": 0, ""refraction"": 0.0, ""birefringence"": 0.0}}"
Tsumebite,Pb2Cu(PO4)(SO4)(OH),"{""Pb"": 2.0, ""Cu"": 1.0, ""P"": 1.0, ""O"": 9.0, ""S"": 1.0, ""H"": 1.0}",685.99,#FFFFFF,monoclinic,"{""system"": ""monoclinic"", ""scale"": [0.7, 1.0, 1.3], ""optical"": {""transparent"": 1, ""refraction"": 1.5, ""birefringence"": 0.01}}"
Tsumgallite,GaO(OH),"{""Ga"": 1.0, ""O"": 2.0, ""H"": 1.0}",102.73,#FFFFFF,orthorhombic,"{""system"": ""orthorhombic"", ""scale"": [0.8, 1.0, 1.2], ""optical"": {""transparent"": 1, ""refraction"": 1.5, ""birefringence"": 0.01}}"
Tsumoite,BiTe,"{""Bi"": 1.0, ""Te"": 1.0}",336.58,#D2B48C,hexagonal,"{""system"": ""hexagonal"", ""scale"": [1.0, 1.0, 1.6], ""optical"": {""transparent"": 0, ""refraction"": 0.0, ""birefringence"": 0.0}}"
Tubulite,Ag2Pb22Sb20S53,"{""Ag"": 2.0, ""Pb"": 22.0, ""Sb"": 20.0, ""S"": 53.0}",8908.52,#708090,monoclinic,"{""system"": ""monoclinic"", ""scale"": [0.7, 1.0, 1.3], ""optical"": {""transparent"": 0, ""refraction"": 0.0, ""birefringence"": 0.0}}"
Tucekite,Ni9Sb2S8,"{""Ni"": 9.0, ""Sb"": 2.0, ""S"": 8.0}",1028.21,#A9A9A9,tetragonal,"{""system"": ""tetragonal"", ""scale"": [1.0, 1.0, 1.4], ""optical"": {""transparent"": 0, ""refraction"": 0.0, ""birefringence"": 0.0}}"
Tugarinovite,MoO2,"{""Mo"": 1.0, ""O"": 2.0}",127.95,#FFFFFF,monoclinic,"{""system"": ""monoclinic"", ""scale"": [0.7, 1.0, 1.3], ""optical"": {""transparent"": 1, ""refraction"": 1.5, ""birefringence"": 0.01}}"
Tugtupite,Na4BeAlSi4O12Cl,"{""Na"": 4.0, ""Be"": 1.0, ""Al"": 1.0, ""Si"": 4.0, ""O"": 12.0, ""Cl"": 1.0}",467.76,#FFFFFF,tetragonal,"{""system"": ""tetragonal"", ""scale"": [1.0, 1.0, 1.4], ""optical"": {""transparent"": 1, ""refraction"": 1.5, ""birefringence"": 0.01}}"
Tuhualite,NaFe2+Fe3+Si6O15,"{""Na"": 1.0, ""Fe"": 2.0, ""Si"": 6.0, ""O"": 15.0}",543.23,#556B2F,orthorhombic,"{""system"": ""orthorhombic"", ""scale"": [0.8, 1.0, 1.2], ""optical"": {""transparent"": 0, ""refraction"": 0.0, ""birefringence"": 0.0}}"
Tuite,Ca3(PO4)2,"{""Ca"": 3.0, ""P"": 2.0, ""O"": 8.0}",310.18,#FFFFFF,hexagonal,"{""system"": ""hexagonal"", ""scale"": [1.0, 1.0, 1.6], ""optical"": {""transparent"": 1, ""refraction"": 1.5, ""birefringence"": 0.01}}"
Tulameenite,Pt2CuFe,"{""Pt"": 2.0, ""Cu"": 1.0, ""Fe"": 1.0}",509.56,#00BFFF,tetragonal,"{""system"": ""tetragonal"", ""scale"": [1.0, 1.0, 1.4], ""optical"": {""transparent"": 0, ""refraction"": 0.0, ""birefringence"": 0.0}}"
Tuliokite,Na6BaTh(CO3)6·6H2O,"{""Na"": 6.0, ""Ba"": 1.0, ""Th"": 1.0, ""C"": 6.0, ""O"": 24.0, ""H"": 12.0}",975.47,#FFFFFF,hexagonal,"{""system"": ""hexagonal"", ""scale"": [1.0, 1.0, 1.6], ""optical"": {""transparent"": 1, ""refraction"": 1.5, ""birefringence"": 0.01}}"
Tumchaite,Na2ZrSi4O11·2H2O,"{""Na"": 2.0, ""Zr"": 1.0, ""Si"": 4.0, ""O"": 13.0, ""H"": 4.0}",461.59,#FFFFFF,monoclinic,"{""system"": ""monoclinic"", ""scale"": [0.7, 1.0, 1.3], ""optical"": {""transparent"": 1, ""refraction"": 1.5, ""birefringence"": 0.01}}"
Tundrite-(Ce),Na2Ce2TiO2(SiO4)(CO3)2,"{""Na"": 2.0, ""Ce"": 2.0, ""Ti"": 1.0, ""O"": 12.0, ""Si"": 1.0, ""C"": 2.0}",618.2,#FFFFFF,triclinic,"{""system"": ""triclinic"", ""scale"": [0.7, 1.0, 1.3], ""optical"": {""transparent"": 1, ""refraction"": 1.5, ""birefringence"": 0.01}}"
Tundrite-(Nd),Na2Nd2TiO2(SiO4)(CO3)2,"{""Na"": 2.0, ""Nd"": 2.0, ""Ti"": 1.0, ""O"": 12.0, ""Si"": 1.0, ""C"": 2.0}",626.44,#FFFFFF,triclinic,"{""system"": ""triclinic"", ""scale"": [0.7, 1.0, 1.3], ""optical"": {""transparent"": 1, ""refraction"": 1.5, ""birefringence"": 0.01}}"
Tunellite,SrB6O9(OH)2·3H2O,"{""Sr"": 1.0, ""B"": 6.0, ""O"": 14.0, ""H"": 8.0}",384.54,#FFFFFF,monoclinic,"{""system"": ""monoclinic"", ""scale"": [0.7, 1.0, 1.3], ""optical"": {""transparent"": 1, ""refraction"": 1.5, ""birefringence"": 0.01}}"
Tungsten,W,"{""W"": 1.0}",183.84,#FFFFFF,cubic,"{""system"": ""cubic"", ""scale"": [1.0, 1.0, 1.0], ""optical"": {""transparent"": 1, ""refraction"": 1.5, ""birefringence"": 0.0}}"
Tungstenite,WS2,"{""W"": 1.0, ""S"": 2.0}",247.96,#A9A9A9,hexagonal,"{""system"": ""hexagonal"", ""scale"": [1.0, 1.0, 1.6], ""optical"": {""transparent"": 0, ""refraction"": 0.0, ""birefringence"": 0.0}}"
Tungstibite,Sb2WO6,"{""Sb"": 2.0, ""W"": 1.0, ""O"": 6.0}",523.36,#A9A9A9,orthorhombic,"{""system"": ""orthorhombic"", ""scale"": [0.8, 1.0, 1.2], ""optical"": {""transparent"": 0, ""refraction"": 0.0, ""birefringence"": 0.0}}"
Tungstite,WO3·H2O,"{""W"": 1.0, ""O"": 4.0, ""H"": 2.0}",249.86,#FFFFFF,orthorhombic,"{""system"": ""orthorhombic"", ""scale"": [0.8, 1.0, 1.2], ""optical"": {""transparent"": 1, ""refraction"": 1.5, ""birefringence"": 0.01}}"
Tungusite,Ca14Fe2+9Si24O60(OH)22,"{""Ca"": 14.0, ""Fe"": 9.0, ""Si"": 24.0, ""O"": 82.0, ""H"": 22.0}",3072.11,#556B2F,triclinic,"{""system"": ""triclinic"", ""scale"": [0.7, 1.0, 1.3], ""optical"": {""transparent"": 0, ""refraction"": 0.0, ""birefringence"": 0.0}}"
Tunisite,NaCa2Al4(CO3)4(OH)8Cl,"{""Na"": 1.0, ""Ca"": 2.0, ""Al"": 4.0, ""C"": 4.0, ""O"": 20.0, ""H"": 8.0, ""Cl"": 1.0}",622.62,#FFFFFF,tetragonal,"{""system"": ""tetragonal"", ""scale"": [1.0, 1.0, 1.4], ""optical"": {""transparent"": 1, ""refraction"": 1.5, ""birefringence"": 0.01}}"
Turanite,Cu2+5(VO4)2(OH)4,"{""Cu"": 5.0, ""V"": 2.0, ""O"": 12.0, ""H"": 4.0}",615.66,#FFFFFF,triclinic,"{""system"": ""triclinic"", ""scale"": [0.7, 1.0, 1.3], ""optical"": {""transparent"": 1, ""refraction"": 1.5, ""birefringence"": 0.01}}"
Turneaureite,Ca5(AsO4)3Cl,"{""Ca"": 5.0, ""As"": 3.0, ""O"": 12.0, ""Cl"": 1.0}",652.61,#FFFFFF,hexagonal,"{""system"": ""hexagonal"", ""scale"": [1.0, 1.0, 1.6], ""optical"": {""transparent"": 1, ""refraction"": 1.5, ""birefringence"": 0.01}}"
Turquoise,CuAl6(PO4)4(OH)8·4H2O,"{""Cu"": 1.0, ""Al"": 6.0, ""P"": 4.0, ""O"": 28.0, ""H"": 16.0}",813.44,#FFFFFF,triclinic,"{""system"": ""triclinic"", ""scale"": [0.7, 1.0, 1.3], ""optical"": {""transparent"": 1, ""refraction"": 1.5, ""birefringence"": 0.01}}"
Tuzlaite,NaCaB5O8(OH)2·3H2O,"{""Na"": 1.0, ""Ca"": 1.0, ""B"": 5.0, ""O"": 13.0, ""H"": 8.0}",333.18,#FFFFFF,monoclinic,"{""system"": ""monoclinic"", ""scale"": [0.7, 1.0, 1.3], ""optical"": {""transparent"": 1, ""refraction"": 1.5, ""birefringence"": 0.01}}"
Tvalchrelidzeite,Hg3SbAsS3,"{""Hg"": 3.0, ""Sb"": 1.0, ""As"": 1.0, ""S"": 3.0}",894.63,#FFD700,monoclinic,"{""system"": ""monoclinic"", ""scale"": [0.7, 1.0, 1.3], ""optical"": {""transparent"": 0, ""refraction"": 0.0, ""birefringence"": 0.0}}"
Tvedalite,Ca4Be3Si6O17(OH)4·3H2O,"{""Ca"": 4.0, ""Be"": 3.0, ""Si"": 6.0, ""O"": 24.0, ""H"": 10.0}",749.97,#FFFFFF,orthorhombic,"{""system"": ""orthorhombic"", ""scale"": [0.8, 1.0, 1.2], ""optical"": {""transparent"": 1, ""refraction"": 1.5, ""birefringence"": 0.01}}"
Tvrdyite,Fe2+Fe3+2Al3(PO4)4(OH)5(H2O)4·2H2O,"{""Fe"": 3.0, ""Al"": 3.0, ""P"": 4.0, ""O"": 27.0, ""H"": 17.0}",821.51,#556B2F,monoclinic,"{""system"": ""monoclinic"", ""scale"": [0.7, 1.0, 1.3], ""optical"": {""transparent"": 0, ""refraction"": 0.0, ""birefringence"": 0.0}}"
Twinnite,PbSbAsS4,"{""Pb"": 1.0, ""Sb"": 1.0, ""As"": 1.0, ""S"": 4.0}",532.12,#708090,monoclinic,"{""system"": ""monoclinic"", ""scale"": [0.7, 1.0, 1.3], ""optical"": {""transparent"": 0, ""refraction"": 0.0, ""birefringence"": 0.0}}"
Tychite,Na6Mg2(CO3)4(SO4),"{""Na"": 6.0, ""Mg"": 2.0, ""C"": 4.0, ""O"": 16.0, ""S"": 1.0}",522.66,#FFFFFF,cubic,"{""system"": ""cubic"", ""scale"": [1.0, 1.0, 1.0], ""optical"": {""transparent"": 1, ""refraction"": 1.5, ""birefringence"": 0.0}}"
Tyretskite,Ca2B5O9(OH)·H2O,"{""Ca"": 2.0, ""B"": 5.0, ""O"": 11.0, ""H"": 3.0}",313.23,#FFFFFF,triclinic,"{""system"": ""triclinic"", ""scale"": [0.7, 1.0, 1.3], ""optical"": {""transparent"": 1, ""refraction"": 1.5, ""birefringence"": 0.01}}"
Tyrolite,Ca2Cu9(AsO4)4(CO3)(OH)8·11H2O,"{""Ca"": 2.0, ""Cu"": 9.0, ""As"": 4.0, ""O"": 38.0, ""C"": 1.0, ""H"": 30.0}",1602.04,#FFFFFF,monoclinic,"{""system"": ""monoclinic"", ""scale"": [0.7, 1.0, 1.3], ""optical"": {""transparent"": 1, ""refraction"": 1.5, ""birefringence"": 0.01}}"
Tyuyamunite,Ca(UO2)2(VO4)2·5-8H2O,"{""Ca"": 1.0, ""U"": 2.0, ""O"": 20.0, ""V"": 2.0, ""H"": 16.0}",954.15,#FFFFFF,tetragonal,"{""system"": ""tetragonal"", ""scale"": [1.0, 1.0, 1.4], ""optical"": {""transparent"": 1, ""refraction"": 1.5, ""birefringence"": 0.01}}"
Uakitite,VN,"{""V"": 1.0, ""N"": 1.0}",64.95,#FFFFFF,cubic,"{""system"": ""cubic"", ""scale"": [1.0, 1.0, 1.0], ""optical"": {""transparent"": 1, ""refraction"": 1.5, ""birefringence"": 0.0}}"
Udinaite,NaMg4(VO4)3,"{""Na"": 1.0, ""Mg"": 4.0, ""V"": 3.0, ""O"": 12.0}",465.05,#FFFFFF,tetragonal,"{""system"": ""tetragonal"", ""scale"": [1.0, 1.0, 1.4], ""optical"": {""transparent"": 1, ""refraction"": 1.5, ""birefringence"": 0.01}}"
Uduminelite,Ca3Al8(PO4)2O12·2H2O,"{""Ca"": 3.0, ""Al"": 8.0, ""P"": 2.0, ""O"": 22.0, ""H"": 4.0}",754.05,#FFFFFF,,"{""system"": """", ""scale"": [1.0, 1.0, 1.0], ""optical"": {""transparent"": 1, ""refraction"": 1.5, ""birefringence"": 0.01}}"
Uklonskovite,NaMg(SO4)F·2H2O,"{""Na"": 1.0, ""Mg"": 1.0, ""S"": 1.0, ""O"": 6.0, ""F"": 1.0, ""H"": 4.0}",198.39,#FFFFFF,monoclinic,"{""system"": ""monoclinic"", ""scale"": [0.7, 1.0, 1.3], ""optical"": {""transparent"": 1, ""refraction"": 1.5, ""birefringence"": 0.01}}"
Ulexite,NaCaB5O6(OH)6·5H2O,"{""Na"": 1.0, ""Ca"": 1.0, ""B"": 5.0, ""O"": 17.0, ""H"": 16.0}",405.25,#FFFFFF,triclinic,"{""system"": ""triclinic"", ""scale"": [0.7, 1.0, 1.3], ""optical"": {""transparent"": 1, ""refraction"": 1.5, ""birefringence"": 0.01}}"
Ullmannite,NiSbS,"{""Ni"": 1.0, ""Sb"": 1.0, ""S"": 1.0}",212.51,#A9A9A9,triclinic,"{""system"": ""triclinic"", ""scale"": [0.7, 1.0, 1.3], ""optical"": {""transparent"": 0, ""refraction"": 0.0, ""birefringence"": 0.0}}"
Ulrichite,CaCu(UO2)(PO4)2·4H2O,"{""Ca"": 1.0, ""Cu"": 1.0, ""U"": 1.0, ""O"": 14.0, ""P"": 2.0, ""H"": 8.0}",635.66,#FFFFFF,monoclinic,"{""system"": ""monoclinic"", ""scale"": [0.7, 1.0, 1.3], ""optical"": {""transparent"": 1, ""refraction"": 1.5, ""birefringence"": 0.01}}"
Ulvospinel,Fe2+2TiO4,"{""Fe"": 2.0, ""Ti"": 1.0, ""O"": 4.0}",223.57,#8B4513,cubic,"{""system"": ""cubic"", ""scale"": [1.0, 1.0, 1.0], ""optical"": {""transparent"": 0, ""refraction"": 0.0, ""birefringence"": 0.0}}"
Umangite,Cu3Se2,"{""Cu"": 3.0, ""Se"": 2.0}",348.57,#00BFFF,tetragonal,"{""system"": ""tetragonal"", ""scale"": [1.0, 1.0, 1.4], ""optical"": {""transparent"": 0, ""refraction"": 0.0, ""birefringence"": 0.0}}"
Umbite,K2ZrSi3O9·H2O,"{""K"": 2.0, ""Zr"": 1.0, ""Si"": 3.0, ""O"": 10.0, ""H"": 2.0}",415.71,#FFFFFF,orthorhombic,"{""system"": ""orthorhombic"", ""scale"": [0.8, 1.0, 1.2], ""optical"": {""transparent"": 1, ""refraction"": 1.5, ""birefringence"": 0.01}}"
Umbrianite,K7Na2Ca2[Al3Si10O29]F2Cl2,"{""K"": 7.0, ""Na"": 2.0, ""Ca"": 2.0, ""Al"": 3.0, ""Si"": 10.0, ""O"": 29.0, ""F"": 2.0, ""Cl"": 2.0}",1334.58,#FFFFFF,orthorhombic,"{""system"": ""orthorhombic"", ""scale"": [0.8, 1.0, 1.2], ""optical"": {""transparent"": 1, ""refraction"": 1.5, ""birefringence"": 0.01}}"