name,formula,elements,density,color,crystal,pm_ids,gacha_weight
Sverigeite,NaBe2Mn2+2SnSi3O12(OH),"{""Na"": 1.0, ""Be"": 2.0, ""Mn"": 2.0, ""Sn"": 1.0, ""Si"": 3.0, ""O"": 13.0, ""H"": 1.0}",562.8504,#FFFFFF,orthorhombic,"{22,34}",2.911e-09
Svetlanaite,SnSe,"{""Sn"": 1.0, ""Se"": 1.0}",197.681,#FFFFFF,orthorhombic,{33},1.2547e-08
Svornostite-(K),K2Mg[(UO2)(SO4)2]2·8H2O,"{""K"": 2.0, ""Mg"": 1.0, ""U"": 2.0, ""O"": 28.0, ""S"": 4.0, ""H"": 16.0}",1170.901,#FFFFFF,orthorhombic,{47},3.003e-09
Svornostite-(NH4),(NH4)2Mg(UO2)2(SO4)4(H2O)8,"{""N"": 2.0, ""H"": 24.0, ""Mg"": 1.0, ""U"": 2.0, ""O"": 28.0, ""S"": 4.0}",1128.783,#FFFFFF,orthorhombic,{},2e-08
Svyatoslavite,Ca(Al2Si2O8),"{""Ca"": 1.0, ""Al"": 2.0, ""Si"": 2.0, ""O"": 8.0}",278.204,#FFFFFF,monoclinic,"{50,54}",1.03175e-07
Svyazhinite,MgAl(SO4)2F·14H2O,"{""Mg"": 1.0, ""Al"": 1.0, ""S"": 2.0, ""O"": 22.0, ""F"": 1.0, ""H"": 28.0}",514.607,#FFFFFF,triclinic,{47},3.003e-09
Swaknoite,(NH4)2Ca(PO3OH)2·H2O,"{""N"": 2.0, ""H"": 12.0, ""Ca"": 1.0, ""P"": 2.0, ""O"": 9.0}",286.127,#FFFFFF,orthorhombic,{52},1.3889e-08
Swartzite,CaMg(UO2)(CO3)3·12H2O,"{""Ca"": 1.0, ""Mg"": 1.0, ""U"": 1.0, ""O"": 23.0, ""C"": 3.0, ""H"": 24.0}",730.615,#FFFFFF,monoclinic,"{47,55}",1.88029e-07
Swedenborgite,NaBe4Sb5+O7,"{""Na"": 1.0, ""Be"": 4.0, ""Sb"": 1.0, ""O"": 7.0}",292.7918,#FFFFFF,hexagonal,{32},2.4272e-08
Sweetite,Zn(OH)2,"{""Zn"": 1.0, ""O"": 2.0, ""H"": 2.0}",99.394,#FFFFFF,tetragonal,"{47,56}",2.2008e-07
Switzerite,Mn2+3(PO4)2·7H2O,"{""Mn"": 3.0, ""P"": 2.0, ""O"": 15.0, ""H"": 14.0}",480.859,#FFFFFF,monoclinic,{22},2.024e-09
Sylvanite,AgAuTe4,"{""Ag"": 1.0, ""Au"": 1.0, ""Te"": 4.0}",815.24,#FFD700,monoclinic,{33},1.2547e-08
Sylvite,KCl,"{""K"": 1.0, ""Cl"": 1.0}",74.548,#FFFFFF,cubic,"{5,21,25,45}",3.04169e-07
Symesite,Pb10(SO4)O7Cl4·H2O,"{""Pb"": 10.0, ""S"": 1.0, ""O"": 12.0, ""Cl"": 4.0, ""H"": 2.0}",2439.864,#FFFFFF,triclinic,{47},3.003e-09
Symplesite,Fe2+3(AsO4)2·8H2O,"{""Fe"": 3.0, ""As"": 2.0, ""O"": 16.0, ""H"": 16.0}",589.491,#556B2F,triclinic,{47},1.5015e-07
Synadelphite,Mn2+9(AsO4)2(AsO3)(OH)9·2H2O,"{""Mn"": 9.0, ""As"": 3.0, ""O"": 22.0, ""H"": 13.0}",1084.29,#FFFFFF,orthorhombic,{47},7.508e-09
Synchysite-(Ce),CaCe(CO3)2F,"{""Ca"": 1.0, ""Ce"": 1.0, ""C"": 2.0, ""O"": 6.0, ""F"": 1.0}",319.212,#FFFFFF,monoclinic,"{34,35,36}",3.293e-09
Synchysite-(Nd),CaNd(CO3)2F,"{""Ca"": 1.0, ""Nd"": 1.0, ""C"": 2.0, ""O"": 6.0, ""F"": 1.0}",323.332,#FFFFFF,orthorhombic,"{34,35}",1.575e-09
Synchysite-(Y),CaY(CO3)2F,"{""Ca"": 1.0, ""Y"": 1.0, ""C"": 2.0, ""O"": 6.0, ""F"": 1.0}",267.998,#FFFFFF,orthorhombic,"{34,35,36}",3.293e-09
Syngenite,K2Ca(SO4)2·H2O,"{""K"": 2.0, ""Ca"": 1.0, ""S"": 2.0, ""O"": 9.0, ""H"": 2.0}",328.401,#FFFFFF,monoclinic,"{45,46,52}",7.096e-09
Szaibelyite,MgBO2(OH),"{""Mg"": 1.0, ""B"": 1.0, ""O"": 3.0, ""H"": 1.0}",84.12,#FFFFFF,monoclinic,"{23,25,31}",1.834503e-06
Szenicsite,Cu3(MoO4)(OH)4,"{""Cu"": 3.0, ""Mo"": 1.0, ""O"": 8.0, ""H"": 4.0}",418.612,#FFFFFF,orthorhombic,{47},1.5015e-07
Szilagyiite,NaCa3(UO2)(CO3)3(SeO3)F(H2O)6,"{""Na"": 1.0, ""Ca"": 3.0, ""U"": 1.0, ""O"": 20.0, ""C"": 3.0, ""Se"": 1.0, ""F"": 1.0, ""H"": 12.0}",847.332,#FFFFFF,hexagonal,{},5e-08
Szmikite,Mn(SO4)·H2O,"{""Mn"": 1.0, ""S"": 1.0, ""O"": 5.0, ""H"": 2.0}",169.009,#FFFFFF,monoclinic,"{47,55}",3.761e-09
Szomolnokite,Fe(SO4)·H2O,"{""Fe"": 1.0, ""S"": 1.0, ""O"": 5.0, ""H"": 2.0}",169.916,#556B2F,monoclinic,"{45,47,55}",4.232e-09
Szymanskiite,Hg16Ni6(CO3)12(OH)12(H3O)8·3H2O,"{""Hg"": 16.0, ""Ni"": 6.0, ""C"": 12.0, ""O"": 59.0, ""H"": 42.0}",4692.007,#FFFFFF,hexagonal,{47},1.5015e-07
Tacharanite,Ca12Al2Si18O33(OH)36,"{""Ca"": 12.0, ""Al"": 2.0, ""Si"": 18.0, ""O"": 69.0, ""H"": 36.0}",2180.649,#FFFFFF,monoclinic,"{10,16}",2.78122e-07
Tachyhydrite,CaMg2Cl6·12H2O,"{""Ca"": 1.0, ""Mg"": 2.0, ""Cl"": 6.0, ""H"": 24.0, ""O"": 12.0}",517.568,#FFFFFF,hexagonal,{25},4.7619e-08
Taikanite,BaSr2Mn3+2O2(Si4O12),"{""Ba"": 1.0, ""Sr"": 2.0, ""Mn"": 2.0, ""O"": 14.0, ""Si"": 4.0}",758.772,#FFFFFF,monoclinic,{32},1.214e-09
Tainiolite,KLiMg2Si4O10F2,"{""K"": 1.0, ""Li"": 1.0, ""Mg"": 2.0, ""Si"": 4.0, ""O"": 10.0, ""F"": 2.0}",404.974,#FFFFFF,monoclinic,"{35,36}",2.407e-09
Takanawaite-(Y),YTaO4,"{""Y"": 1.0, ""Ta"": 1.0, ""O"": 4.0}",333.852,#FFFFFF,monoclinic,{34},1.773e-08
Takedaite,Ca3B2O6,"{""Ca"": 3.0, ""B"": 2.0, ""O"": 6.0}",237.848,#FFFFFF,hexagonal,{23},1.758794e-06
Takeuchiite,Mg2Mn3+O2(BO3),"{""Mg"": 2.0, ""Mn"": 1.0, ""O"": 5.0, ""B"": 1.0}",194.353,#FFFFFF,orthorhombic,{32},1.214e-09
Takovite,Ni6Al2(OH)16(CO3)·4H2O,"{""Ni"": 6.0, ""Al"": 2.0, ""O"": 23.0, ""H"": 24.0, ""C"": 1.0}",810.302,#FFFFFF,hexagonal,"{47,48}",2.90995e-07
Talc,Mg3Si4O10(OH)2,"{""Mg"": 3.0, ""Si"": 4.0, ""O"": 12.0, ""H"": 2.0}",379.259,#FFFFFF,monoclinic,"{6,7,13,15,16,31,39,40,47}",1.3569144e-05
Talmessite,Ca2Mg(AsO4)2·2H2O,"{""Ca"": 2.0, ""Mg"": 1.0, ""As"": 2.0, ""O"": 10.0, ""H"": 4.0}",418.327,#FFFFFF,triclinic,{47},1.5015e-07
Talnakhite,Cu9Fe8S16,"{""Cu"": 9.0, ""Fe"": 8.0, ""S"": 16.0}",1531.634,#DAA520,cubic,"{15,33,37}",7.982e-09
Tamarugite,NaAl(SO4)2·6H2O,"{""Na"": 1.0, ""Al"": 1.0, ""S"": 2.0, ""O"": 14.0, ""H"": 12.0}",350.174,#FFFFFF,monoclinic,"{45,47}",3.475e-09
Tamboite,Fe3+3(OH)(H2O)2(SO4)(Te4+O3)3[Te4+O(OH)2](H2O)3,"{""Fe"": 3.0, ""O"": 22.0, ""H"": 13.0, ""S"": 1.0, ""Te"": 4.0}",1075.077,#556B2F,monoclinic,{47},3.003e-09
Tamuraite,Ir5Fe10S16,"{""Ir"": 5.0, ""Fe"": 10.0, ""S"": 16.0}",2032.51,#DAA520,hexagonal,{33},2.51e-10
Tancaite-(Ce),FeCe(MoO4)3·3H2O,"{""Fe"": 1.0, ""Ce"": 1.0, ""Mo"": 3.0, ""O"": 15.0, ""H"": 6.0}",729.848,#556B2F,hexagonal,"{22,47}",1.90636e-07
Tancoite,LiNa2Al(PO4)(PO3OH)(OH),"{""Li"": 1.0, ""Na"": 2.0, ""Al"": 1.0, ""P"": 2.0, ""O"": 9.0, ""H"": 2.0}",287.857,#FFFFFF,orthorhombic,{34},1.773e-09
Tangeite,CaCu(VO4)(OH),"{""Ca"": 1.0, ""Cu"": 1.0, ""V"": 1.0, ""O"": 5.0, ""H"": 1.0}",235.569,#FFFFFF,orthorhombic,{47},1.5015e-07
Taniajacoite,SrCaMn3+2Si4O11(OH)4·2H2O,"{""Sr"": 1.0, ""Ca"": 1.0, ""Mn"": 2.0, ""Si"": 4.0, ""O"": 17.0, ""H"": 8.0}",629.961,#FFFFFF,triclinic,{32},1.214e-09
Tanohataite,LiMn2Si3O8(OH),"{""Li"": 1.0, ""Mn"": 2.0, ""Si"": 3.0, ""O"": 9.0, ""H"": 1.0}",346.07,#FFFFFF,triclinic,"{32,35}",1.902e-09
Tantalaeschynite-(Ce),Ce(TiTa)O6,"{""Ce"": 1.0, ""Ti"": 1.0, ""Ta"": 1.0, ""O"": 6.0}",464.931,#FFFFFF,orthorhombic,{},3e-07
Tantalaeschynite-(Y),Y(TiTa)O6,"{""Y"": 1.0, ""Ti"": 1.0, ""Ta"": 1.0, ""O"": 6.0}",413.717,#FFFFFF,orthorhombic,{34},5.319e-09
Tantalcarbide,TaC,"{""Ta"": 1.0, ""C"": 1.0}",192.961,#FFFFFF,cubic,{26},4e-08
Tantalite-(Fe),Fe2+Ta2O6,"{""Fe"": 1.0, ""Ta"": 2.0, ""O"": 6.0}",513.739,#8B4513,orthorhombic,{34},1.773e-08
Tantalite-(Mg),MgTa2O6,"{""Mg"": 1.0, ""Ta"": 2.0, ""O"": 6.0}",482.199,#FFFFFF,orthorhombic,{34},1.773e-08
Tantalite-(Mn),Mn2+Ta2O6,"{""Mn"": 1.0, ""Ta"": 2.0, ""O"": 6.0}",512.832,#FFB6C1,orthorhombic,{34},8.87e-10
Tanteuxenite-(Y),Y(TaTi)O6,"{""Y"": 1.0, ""Ta"": 1.0, ""Ti"": 1.0, ""O"": 6.0}",413.717,#FFFFFF,unknown,"{26,34}",1.7319e-08
Tantite,Ta2O5,"{""Ta"": 2.0, ""O"": 5.0}",441.895,#FFFFFF,monoclinic,{34},1.773e-08
Tapiaite,Ca5Al2(AsO4)4(OH)4·12H2O,"{""Ca"": 5.0, ""Al"": 2.0, ""As"": 4.0, ""O"": 32.0, ""H"": 28.0}",1094.234,#FFFFFF,monoclinic,{47},1.5015e-07
Tapiolite-(Fe),Fe2+Ta2O6,"{""Fe"": 1.0, ""Ta"": 2.0, ""O"": 6.0}",513.739,#8B4513,tetragonal,{34},1.773e-08
Tapiolite-(Mn),Mn2+Ta2O6,"{""Mn"": 1.0, ""Ta"": 2.0, ""O"": 6.0}",512.832,#FFB6C1,tetragonal,{34},8.87e-10
Taramite,Na(NaCa)(Mg3Al2)(Si6Al2)O22(OH)2,"{""Na"": 2.0, ""Ca"": 1.0, ""Mg"": 3.0, ""Al"": 4.0, ""Si"": 6.0, ""O"": 24.0, ""H"": 2.0}",821.403,#FFFFFF,monoclinic,"{23,35,39,40}",1.4715758e-05
Taranakite,K3Al5(PO3OH)6(PO4)2·18H2O,"{""K"": 3.0, ""Al"": 5.0, ""P"": 8.0, ""O"": 50.0, ""H"": 42.0}",1342.282,#FFFFFF,hexagonal,"{47,50,52,54}",3.684e-08
Tarapacaite,K2(CrO4),"{""K"": 2.0, ""Cr"": 1.0, ""O"": 4.0}",194.188,#228B22,orthorhombic,"{25,33}",6.0166e-08
Tarbuttite,Zn2(PO4)(OH),"{""Zn"": 2.0, ""P"": 1.0, ""O"": 5.0, ""H"": 1.0}",242.737,#FFFFFF,triclinic,{47},1.5015e-08
Tartarosite,C,"{""C"": 1.0}",12.011,#FFFFFF,cubic,{},1e-06
Tarutinoite,Ag3Pb7Bi7S19,"{""Ag"": 3.0, ""Pb"": 7.0, ""Bi"": 7.0, ""S"": 19.0}",3846.01,#708090,monoclinic,{},2e-08
Tashelgite,CaMgFe2+Al9O16(OH),"{""Ca"": 1.0, ""Mg"": 1.0, ""Fe"": 1.0, ""Al"": 9.0, ""O"": 17.0, ""H"": 1.0}",636.057,#556B2F,monoclinic,{31},3.6517e-08
Tassieite,NaCa2Mg3Fe2+2Fe3+(PO4)6·2H2O,"{""Na"": 1.0, ""Ca"": 2.0, ""Mg"": 3.0, ""Fe"": 3.0, ""P"": 6.0, ""O"": 26.0, ""H"": 4.0}",949.446,#556B2F,orthorhombic,{34},1.773e-09
Tatarinovite,Ca3Al(SO4)[B(OH)4](OH)6·12H2O,"{""Ca"": 3.0, ""Al"": 1.0, ""S"": 1.0, ""O"": 26.0, ""B"": 1.0, ""H"": 34.0}",640.332,#FFFFFF,hexagonal,{31},5.62e-10
Tatarskite,Ca6Mg2(SO4)2(CO3)2(OH)4Cl4·7H2O,"{""Ca"": 6.0, ""Mg"": 2.0, ""S"": 2.0, ""O"": 25.0, ""C"": 2.0, ""H"": 18.0, ""Cl"": 4.0}",937.139,#FFFFFF,unknown,{25},9.52e-10
Tausonite,SrTiO3,"{""Sr"": 1.0, ""Ti"": 1.0, ""O"": 3.0}",183.484,#FFFFFF,tetragonal,"{7,35,36}",3.8832e-08
Tavagnascoite,Bi4O4(SO4)(OH)2,"{""Bi"": 4.0, ""O"": 10.0, ""S"": 1.0, ""H"": 2.0}",1029.986,#FFFFFF,orthorhombic,{47},3.003e-09
Tavorite,LiFe3+(PO4)(OH),"{""Li"": 1.0, ""Fe"": 1.0, ""P"": 1.0, ""O"": 5.0, ""H"": 1.0}",174.762,#556B2F,triclinic,"{34,47}",1.6788e-08
Teallite,PbSnS2,"{""Pb"": 1.0, ""Sn"": 1.0, ""S"": 2.0}",390.03,#708090,orthorhombic,"{33,50,54}",1.838e-09
Teepleite,Na2B(OH)4Cl,"{""Na"": 2.0, ""B"": 1.0, ""O"": 4.0, ""H"": 4.0, ""Cl"": 1.0}",160.268,#FFFFFF,tetragonal,{25},4.7619e-08
Teineite,Cu2+(Te4+O3)·2H2O,"{""Cu"": 1.0, ""Te"": 1.0, ""O"": 5.0, ""H"": 4.0}",275.173,#FFFFFF,orthorhombic,{47},1.5015e-07
Tellurantimony,Sb2Te3,"{""Sb"": 2.0, ""Te"": 3.0}",626.32,#A9A9A9,hexagonal,{33},1.2547e-08
Tellurite,TeO2,"{""Te"": 1.0, ""O"": 2.0}",159.598,#FFFFFF,orthorhombic,{47},1.5015e-07
Tellurium,Te,"{""Te"": 1.0}",127.6,#FFFFFF,hexagonal,"{33,45}",3.6132e-08
Tellurobismuthite,Bi2Te3,"{""Bi"": 2.0, ""Te"": 3.0}",800.76,#D2B48C,hexagonal,{33},1.2547e-08
Tellurohauchecornite,Ni9BiTeS8,"{""Ni"": 9.0, ""Bi"": 1.0, ""Te"": 1.0, ""S"": 8.0}",1121.297,#A9A9A9,tetragonal,{33},2.51e-10
Telluromandarinoite,Fe3+2(Te4+O3)3·6H2O,"{""Fe"": 2.0, ""Te"": 3.0, ""O"": 15.0, ""H"": 12.0}",746.571,#556B2F,monoclinic,{47},1.5015e-07
Telluronevskite,Bi3TeSe2,"{""Bi"": 3.0, ""Te"": 1.0, ""Se"": 2.0}",912.482,#D2B48C,hexagonal,{33},1.2547e-08
Telluropalladinite,Pd9Te4,"{""Pd"": 9.0, ""Te"": 4.0}",1468.18,#FFFFFF,monoclinic,"{33,37}",8.6621e-08
Telyushenkoite,CsNa6Be2Al3Si15O39F2,"{""Cs"": 1.0, ""Na"": 6.0, ""Be"": 2.0, ""Al"": 3.0, ""Si"": 15.0, ""O"": 39.0, ""F"": 2.0}",1453.0524,#FFFFFF,hexagonal,{35},6.89e-10
Temagamite,Pd3HgTe3,"{""Pd"": 3.0, ""Hg"": 1.0, ""Te"": 3.0}",902.65,#FFFFFF,orthorhombic,"{33,37}",8.6621e-08
Tengchongite,Ca(UO2)6(MoO4OH)2O2(OH)4·9H2O,"{""Ca"": 1.0, ""U"": 6.0, ""O"": 37.0, ""Mo"": 2.0, ""H"": 24.0}",2276.313,#FFFFFF,orthorhombic,{47},1.5015e-07
Tengerite-(Y),Y2(CO3)3·2-3H2O,"{""Y"": 2.0, ""C"": 3.0, ""O"": 12.0, ""H"": 6.0}",411.881,#FFFFFF,orthorhombic,{47},1.5015e-07
Tennantite-(Cd),Cu6(Cu4Cd2)As4S13,"{""Cu"": 10.0, ""Cd"": 2.0, ""As"": 4.0, ""S"": 13.0}",1576.748,#FFD700,cubic,{33},2.51e-10
Tennantite-(Cu),Cu6(Cu4Cu2)As4S13,"{""Cu"": 12.0, ""As"": 4.0, ""S"": 13.0}",1479.02,#FFD700,cubic,{33},2.51e-10
Tennantite-(Fe),Cu6(Cu4Fe2)As4S13,"{""Cu"": 10.0, ""Fe"": 2.0, ""As"": 4.0, ""S"": 13.0}",1463.618,#DAA520,cubic,"{33,37}",1.732e-09
Tennantite-(Hg),Cu6(Cu4Hg2)As4S13,"{""Cu"": 10.0, ""Hg"": 2.0, ""As"": 4.0, ""S"": 13.0}",1753.108,#FFD700,cubic,{33},2.51e-10
Tennantite-(In),Cu6(Cu5In)As4S13,"{""Cu"": 11.0, ""In"": 1.0, ""As"": 4.0, ""S"": 13.0}",1530.294,#FFD700,cubic,{},2e-08
Tennantite-(Mn),Cu6(Cu4Mn2)As4S13,"{""Cu"": 10.0, ""Mn"": 2.0, ""As"": 4.0, ""S"": 13.0}",1461.804,#FFD700,cubic,{33},2.51e-10
Tennantite-(Ni),Cu6(Cu4Ni2)As4S13,"{""Cu"": 10.0, ""Ni"": 2.0, ""As"": 4.0, ""S"": 13.0}",1469.314,#FFD700,cubic,{33},2.51e-10
Tennantite-(Zn),Cu6(Cu4Zn2)As4S13,"{""Cu"": 10.0, ""Zn"": 2.0, ""As"": 4.0, ""S"": 13.0}",1482.688,#FFD700,cubic,"{32,33}",7.36e-10
Tenorite,CuO,"{""Cu"": 1.0, ""O"": 1.0}",79.545,#00BFFF,monoclinic,"{45,50,54}",1.0295e-07
Tephroite,Mn2+2(SiO4),"{""Mn"": 2.0, ""Si"": 1.0, ""O"": 4.0}",201.957,#FFB6C1,orthorhombic,"{31,32,40}",4.72838e-07
Terlinguacreekite,Hg2+3O2Cl2,"{""Hg"": 3.0, ""O"": 2.0, ""Cl"": 2.0}",704.668,#FFFFFF,orthorhombic,{47},1.5015e-07
Terlinguaite,Hg2OCl,"{""Hg"": 2.0, ""O"": 1.0, ""Cl"": 1.0}",452.629,#FFFFFF,monoclinic,{47},1.5015e-07
Ternesite,Ca5(SiO4)2(SO4),"{""Ca"": 5.0, ""Si"": 2.0, ""O"": 12.0, ""S"": 1.0}",480.608,#FFFFFF,orthorhombic,"{31,50,51,54,56}",5.11e-09
Ternovite,MgNb4O11·8-12H2O,"{""Mg"": 1.0, ""Nb"": 4.0, ""O"": 23.0, ""H"": 24.0}",788.098,#FFFFFF,unknown,{35},1.3774e-08
Terranovaite,NaCaAl3Si17O40·~8H2O,"{""Na"": 1.0, ""Ca"": 1.0, ""Al"": 3.0, ""Si"": 17.0, ""O"": 48.0, ""H"": 16.0}",1405.539,#FFFFFF,orthorhombic,{10},1.21495e-07
Terskite,Na4ZrSi6O16·2H2O,"{""Na"": 4.0, ""Zr"": 1.0, ""Si"": 6.0, ""O"": 18.0, ""H"": 4.0}",643.708,#FFFFFF,orthorhombic,{35},1.3774e-08
Tertschite,Ca4B10O19·20H2O,"{""Ca"": 4.0, ""B"": 10.0, ""O"": 39.0, ""H"": 40.0}",932.693,#FFFFFF,unknown,{25},4.7619e-08
Teruggite,Ca4Mg[AsB6O11(OH)6]2·14H2O,"{""Ca"": 4.0, ""Mg"": 1.0, ""As"": 2.0, ""B"": 12.0, ""O"": 48.0, ""H"": 40.0}",1272.453,#FFFFFF,monoclinic,{25},4.7619e-08
Teschemacherite,(NH4)H(CO3),"{""N"": 1.0, ""H"": 5.0, ""C"": 1.0, ""O"": 3.0}",79.055,#FFFFFF,orthorhombic,{52},1.38889e-07
Testibiopalladite,PdSbTe,"{""Pd"": 1.0, ""Sb"": 1.0, ""Te"": 1.0}",355.78,#A9A9A9,cubic,{},1e-06
Tetra-auricupride,CuAu,"{""Cu"": 1.0, ""Au"": 1.0}",260.516,#00BFFF,unknown,"{7,26,36,37}",2.29739e-07
Tetradymite,Bi2Te2S,"{""Bi"": 2.0, ""Te"": 2.0, ""S"": 1.0}",705.22,#A9A9A9,hexagonal,"{23,31,33}",3.5989e-08
Tetraferriannite,KFe2+3(Si3Fe3+)O10(OH)2,"{""K"": 1.0, ""Fe"": 4.0, ""Si"": 3.0, ""O"": 12.0, ""H"": 2.0}",540.737,#556B2F,hexagonal,"{8,9,19,20,31,34,35,40,56}",7.1752133e-05
Tetraferriphlogopite,KMg3(Si3Fe3+)O10(OH)2,"{""K"": 1.0, ""Mg"": 3.0, ""Si"": 3.0, ""Fe"": 1.0, ""O"": 12.0, ""H"": 2.0}",446.117,#556B2F,unknown,{19},4.5454545e-05
Tetraferroplatinum,PtFe,"{""Pt"": 1.0, ""Fe"": 1.0}",250.925,#8B4513,tetragonal,"{7,26,37,38}",2.87967e-07
Tetrahedrite-(Cd),Cu6(Cu4Cd2)Sb4S13,"{""Cu"": 10.0, ""Cd"": 2.0, ""Sb"": 4.0, ""S"": 13.0}",1764.1,#A9A9A9,cubic,{},2e-08
Tetrahedrite-(Cu),Cu6(Cu4Cu2)Sb4S13,"{""Cu"": 12.0, ""Sb"": 4.0, ""S"": 13.0}",1666.372,#A9A9A9,cubic,{},2e-08
Tetrahedrite-(Fe),Cu6(Cu4Fe2)Sb4S13,"{""Cu"": 10.0, ""Fe"": 2.0, ""Sb"": 4.0, ""S"": 13.0}",1650.97,#DAA520,unknown,{33},2.51e-10
Tetrahedrite-(Hg),Cu6(Cu4Hg2)Sb4S13,"{""Cu"": 10.0, ""Hg"": 2.0, ""Sb"": 4.0, ""S"": 13.0}",1940.46,#A9A9A9,cubic,{33},2.51e-10
Tetrahedrite-(Mn),Cu6(Cu4Mn2)Sb4S13,"{""Cu"": 10.0, ""Mn"": 2.0, ""Sb"": 4.0, ""S"": 13.0}",1649.156,#A9A9A9,cubic,{33},2.51e-10
Tetrahedrite-(Ni),Cu6(Cu4Ni2)Sb4S13,"{""Cu"": 10.0, ""Ni"": 2.0, ""Sb"": 4.0, ""S"": 13.0}",1656.666,#A9A9A9,cubic,{33},2.51e-10
Tetrahedrite-(Zn),Cu6(Cu4Zn2)Sb4S13,"{""Cu"": 10.0, ""Zn"": 2.0, ""Sb"": 4.0, ""S"": 13.0}",1670.04,#A9A9A9,cubic,"{32,33}",7.36e-10
Tetrarooseveltite,Bi(AsO4),"{""Bi"": 1.0, ""As"": 1.0, ""O"": 4.0}",347.898,#808080,tetragonal,{47},1.5015e-07
Tetrataenite,FeNi,"{""Fe"": 1.0, ""Ni"": 1.0}",114.538,#7FFF00,monoclinic,"{4,5,6}",3.67929e-07
Tetrawickmanite,Mn2+Sn4+(OH)6,"{""Mn"": 1.0, ""Sn"": 1.0, ""O"": 6.0, ""H"": 6.0}",275.69,#FFFFFF,tetragonal,"{32,34,47}",9.608e-09
Thalenite-(Y),Y3Si3O10F,"{""Y"": 3.0, ""Si"": 3.0, ""O"": 10.0, ""F"": 1.0}",529.961,#FFFFFF,monoclinic,{34},8.87e-10
Thalhammerite,Pd9Ag2Bi2S4,"{""Pd"": 9.0, ""Ag"": 2.0, ""Bi"": 2.0, ""S"": 4.0}",1719.72,#A9A9A9,tetragonal,{33},2.51e-10
Thalliumpharmacosiderite,TlFe4[(AsO4)3(OH)4]·4H2O,"{""Tl"": 1.0, ""Fe"": 4.0, ""As"": 3.0, ""O"": 20.0, ""H"": 12.0}",984.602,#556B2F,cubic,{47},1.5015e-07
Thaumasite,Ca3Si(OH)6(CO3)(SO4)·12H2O,"{""Ca"": 3.0, ""Si"": 1.0, ""O"": 25.0, ""H"": 30.0, ""C"": 1.0, ""S"": 1.0}",622.605,#FFFFFF,hexagonal,{47},3.003e-09
Thebaite-(NH4),(NH4)3Al(C2O4)(PO3OH)2(H2O),"{""N"": 3.0, ""H"": 16.0, ""Al"": 1.0, ""C"": 2.0, ""O"": 13.0, ""P"": 2.0}",379.088,#FFFFFF,monoclinic,"{52,55}",1.7677e-08
Theisite,Cu5Zn5(AsO4)2(OH)14,"{""Cu"": 5.0, ""Zn"": 5.0, ""As"": 2.0, ""O"": 22.0, ""H"": 14.0}",1160.564,#FFFFFF,hexagonal,{47},1.5015e-07
Thenardite,Na2(SO4),"{""Na"": 2.0, ""S"": 1.0, ""O"": 4.0}",142.036,#FFFF00,orthorhombic,"{25,45,50,54}",3.011e-09
Theoparacelsite,Cu3(OH)2As2O7,"{""Cu"": 3.0, ""O"": 9.0, ""H"": 2.0, ""As"": 2.0}",486.489,#FFFFFF,orthorhombic,{47},1.5015e-07
Theophrastite,Ni(OH)2,"{""Ni"": 1.0, ""O"": 2.0, ""H"": 2.0}",92.707,#7FFF00,hexagonal,"{7,47}",2.31451e-07
Therasiaite,(NH4)3KNa2Fe2+Fe3+(SO4)3Cl5,"{""N"": 3.0, ""H"": 12.0, ""K"": 1.0, ""Na"": 2.0, ""Fe"": 2.0, ""S"": 3.0, ""O"": 12.0, ""Cl"": 5.0}",716.303,#556B2F,monoclinic,{45},4.72e-10
Theresemagnanite,NaCo4(SO4)(OH)6Cl·6H2O,"{""Na"": 1.0, ""Co"": 4.0, ""S"": 1.0, ""O"": 16.0, ""H"": 18.0, ""Cl"": 1.0}",600.36,#FFFFFF,hexagonal,{47},3.003e-09
Thermaerogenite,CuAl2O4,"{""Cu"": 1.0, ""Al"": 2.0, ""O"": 4.0}",181.506,#00BFFF,cubic,{45},2.3585e-08
Thermessaite,K2AlF3(SO4),"{""K"": 2.0, ""Al"": 1.0, ""F"": 3.0, ""S"": 1.0, ""O"": 4.0}",258.228,#FFFFFF,orthorhombic,"{45,50}",1.204e-09
Thermessaite-(NH4),(NH4)2AlF3(SO4),"{""N"": 2.0, ""H"": 8.0, ""Al"": 1.0, ""F"": 3.0, ""S"": 1.0, ""O"": 4.0}",216.11,#FFFFFF,orthorhombic,"{45,54}",1.326e-09
Thermonatrite,Na2(CO3)·H2O,"{""Na"": 2.0, ""C"": 1.0, ""O"": 4.0, ""H"": 2.0}",124.003,#FFFFFF,orthorhombic,"{25,45,47}",2.21354e-07
Theuerdankite,Ag3(AsO4),"{""Ag"": 3.0, ""As"": 1.0, ""O"": 4.0}",462.528,#C0C0C0,cubic,{},1e-06
Thionasilite,Na2Si2S2O3,"{""Na"": 2.0, ""Si"": 2.0, ""S"": 2.0, ""O"": 3.0}",214.267,#FFFFFF,orthorhombic,{},2e-08
Thomasclarkite-(Y),NaY(HCO3)(OH)3·4H2O,"{""Na"": 1.0, ""Y"": 1.0, ""H"": 12.0, ""C"": 1.0, ""O"": 10.0}",295.993,#FFFFFF,monoclinic,{35},1.3774e-08
Thometzekite,PbCu2+2(AsO4)2·2H2O,"{""Pb"": 1.0, ""Cu"": 2.0, ""As"": 2.0, ""O"": 10.0, ""H"": 4.0}",648.158,#FFFFFF,monoclinic,{47},1.5015e-07
Thomsenolite,NaCaAlF6·H2O,"{""Na"": 1.0, ""Ca"": 1.0, ""Al"": 1.0, ""F"": 6.0, ""H"": 2.0, ""O"": 1.0}",222.053,#FFFFFF,monoclinic,"{22,56}",5.521e-09
Thomsonite-Ca,NaCa2(Al5Si5)O20·6H2O,"{""Na"": 1.0, ""Ca"": 2.0, ""Al"": 5.0, ""Si"": 5.0, ""O"": 26.0, ""H"": 12.0}",806.551,#FFFFFF,orthorhombic,"{14,24,38,40}",1.2734866e-05
Thomsonite-Sr,NaSr2(Al5Si5)O20·6-7H2O,"{""Na"": 1.0, ""Sr"": 2.0, ""Al"": 5.0, ""Si"": 5.0, ""O"": 27.0, ""H"": 14.0}",919.65,#FFFFFF,orthorhombic,{22},4.0486e-08
Thorasphite,Th2H(AsO4)2(PO4)·6H2O,"{""Th"": 2.0, ""H"": 13.0, ""As"": 2.0, ""O"": 18.0, ""P"": 1.0}",945.984,#FFFFFF,orthorhombic,{47},1.5015e-08
Thorbastnasite,ThCa(CO3)2F2·3H2O,"{""Th"": 1.0, ""Ca"": 1.0, ""C"": 2.0, ""O"": 9.0, ""F"": 2.0, ""H"": 6.0}",484.175,#FFFFFF,hexagonal,{35},6.89e-10
Thoreaulite,Sn2+Ta2O6,"{""Sn"": 1.0, ""Ta"": 2.0, ""O"": 6.0}",576.604,#FFFFFF,monoclinic,"{26,34}",5.773e-08
Thorianite,ThO2,"{""Th"": 1.0, ""O"": 2.0}",264.038,#FFFFFF,cubic,"{26,34,36}",9.2095e-08
Thorikosite,Pb3O3Sb3+(OH)Cl2,"{""Pb"": 3.0, ""O"": 4.0, ""Sb"": 1.0, ""H"": 1.0, ""Cl"": 2.0}",879.264,#FFFFFF,tetragonal,"{47,56}",2.2008e-07
Thorite,Th(SiO4),"{""Th"": 1.0, ""Si"": 1.0, ""O"": 4.0}",324.121,#FFFFFF,tetragonal,"{26,34}",5.773e-08
Thornasite,Na12Th3(Si8O19)4·18H2O,"{""Na"": 12.0, ""Th"": 3.0, ""Si"": 32.0, ""O"": 94.0, ""H"": 36.0}",3410.914,#FFFFFF,hexagonal,{35},1.3774e-08
Thorneite,Pb6(Te2O10)(CO3)Cl2(H2O),"{""Pb"": 6.0, ""Te"": 2.0, ""O"": 14.0, ""C"": 1.0, ""Cl"": 2.0, ""H"": 2.0}",1807.313,#FFFFFF,monoclinic,{47},1.5015e-07
Thortveitite,Sc2Si2O7,"{""Sc"": 2.0, ""Si"": 2.0, ""O"": 7.0}",258.075,#FFFFFF,monoclinic,"{3,34}",2.26064e-07
Threadgoldite,Al(UO2)2(PO4)2(OH)·8H2O,"{""Al"": 1.0, ""U"": 2.0, ""O"": 21.0, ""P"": 2.0, ""H"": 17.0}",918.105,#FFFFFF,monoclinic,"{34,47}",1.6788e-08
Thunderbayite,TlAg3Au3Sb7S6,"{""Tl"": 1.0, ""Ag"": 3.0, ""Au"": 3.0, ""Sb"": 7.0, ""S"": 6.0}",2163.58,#A9A9A9,triclinic,{33},2.51e-10
Tianhongqiite,CrTiO3(OH),"{""Cr"": 1.0, ""Ti"": 1.0, ""O"": 4.0, ""H"": 1.0}",164.867,#FFFFFF,monoclinic,{38},2.7778e-08