name,formula,elements,density,color,crystal_system,dna
Seifertite,SiO2,"{""Si"": 1.0, ""O"": 2.0}",60.09,#FFFFFF,orthorhombic,"{""system"": ""orthorhombic"", ""scale"": [0.8, 1.0, 1.2], ""optical"": {""transparent"": 1, ""refraction"": 1.5, ""birefringence"": 0.01}}"
Seinajokite,FeSb2,"{""Fe"": 1.0, ""Sb"": 2.0}",299.37,#8B4513,orthorhombic,"{""system"": ""orthorhombic"", ""scale"": [0.8, 1.0, 1.2], ""optical"": {""transparent"": 0, ""refraction"": 0.0, ""birefringence"": 0.0}}"
Sejkoraite-(Y),Y2[(UO2)8O6(SO4)4(OH)2]·26H2O,"{""Y"": 2.0, ""U"": 8.0, ""O"": 66.0, ""S"": 4.0, ""H"": 54.0}",3320.73,#FFFFFF,triclinic,"{""system"": ""triclinic"", ""scale"": [0.7, 1.0, 1.3], ""optical"": {""transparent"": 1, ""refraction"": 1.5, ""birefringence"": 0.01}}"
Sekaninaite,Fe2+2Al4Si5O18,"{""Fe"": 2.0, ""Al"": 4.0, ""Si"": 5.0, ""O"": 18.0}",648.07,#556B2F,orthorhombic,"{""system"": ""orthorhombic"", ""scale"": [0.8, 1.0, 1.2], ""optical"": {""transparent"": 0, ""refraction"": 0.0, ""birefringence"": 0.0}}"
Selenium,Se,"{""Se"": 1.0}",78.96,#FFFFFF,monoclinic,"{""system"": ""monoclinic"", ""scale"": [0.7, 1.0, 1.3], ""optical"": {""transparent"": 1, ""refraction"": 1.5, ""birefringence"": 0.01}}"
Selenodantopaite,Ag5Bi13Se22,"{""Ag"": 5.0, ""Bi"": 13.0, ""Se"": 22.0}",4993.21,#C0C0C0,monoclinic,"{""system"": ""monoclinic"", ""scale"": [0.7, 1.0, 1.3], ""optical"": {""transparent"": 0, ""refraction"": 0.0, ""birefringence"": 0.0}}"
Selenojalpaite,Ag3CuSe2,"{""Ag"": 3.0, ""Cu"": 1.0, ""Se"": 2.0}",545.08,#00BFFF,tetragonal,"{""system"": ""tetragonal"", ""scale"": [1.0, 1.0, 1.4], ""optical"": {""transparent"": 0, ""refraction"": 0.0, ""birefringence"": 0.0}}"
Selenojunoite,Cu2Pb3Bi8Se16,"{""Cu"": 2.0, ""Pb"": 3.0, ""Bi"": 8.0, ""Se"": 16.0}",3683.9,#FFFFFF,monoclinic,"{""system"": ""monoclinic"", ""scale"": [0.7, 1.0, 1.3], ""optical"": {""transparent"": 1, ""refraction"": 1.5, ""birefringence"": 0.01}}"
Selenolaurite,RuSe2,"{""Ru"": 1.0, ""Se"": 2.0}",258.99,#FFFFFF,cubic,"{""system"": ""cubic"", ""scale"": [1.0, 1.0, 1.0], ""optical"": {""transparent"": 1, ""refraction"": 1.5, ""birefringence"": 0.0}}"
Selenostephanite,Ag5SbSe4,"{""Ag"": 5.0, ""Sb"": 1.0, ""Se"": 4.0}",976.95,#C0C0C0,orthorhombic,"{""system"": ""orthorhombic"", ""scale"": [0.8, 1.0, 1.2], ""optical"": {""transparent"": 0, ""refraction"": 0.0, ""birefringence"": 0.0}}"
Seligmannite,CuPbAsS3,"{""Cu"": 1.0, ""Pb"": 1.0, ""As"": 1.0, ""S"": 3.0}",441.85,#708090,orthorhombic,"{""system"": ""orthorhombic"", ""scale"": [0.8, 1.0, 1.2], ""optical"": {""transparent"": 0, ""refraction"": 0.0, ""birefringence"": 0.0}}"
Sellaite,MgF2,"{""Mg"": 1.0, ""F"": 2.0}",62.31,#FFFFFF,tetragonal,"{""system"": ""tetragonal"", ""scale"": [1.0, 1.0, 1.4], ""optical"": {""transparent"": 1, ""refraction"": 1.5, ""birefringence"": 0.01}}"
Selwynite,NaKBeZr2(PO4)4·2H2O,"{""Na"": 1.0, ""K"": 1.0, ""Be"": 1.0, ""Zr"": 2.0, ""P"": 4.0, ""O"": 18.0, ""H"": 4.0}",669.45,#FFFFFF,tetragonal,"{""system"": ""tetragonal"", ""scale"": [1.0, 1.0, 1.4], ""optical"": {""transparent"": 1, ""refraction"": 1.5, ""birefringence"": 0.01}}"
Semseyite,Pb9Sb8S21,"{""Pb"": 9.0, ""Sb"": 8.0, ""S"": 21.0}",3512.14,#708090,monoclinic,"{""system"": ""monoclinic"", ""scale"": [0.7, 1.0, 1.3], ""optical"": {""transparent"": 0, ""refraction"": 0.0, ""birefringence"": 0.0}}"
Senandorite,AgPbSb3S6,"{""Ag"": 1.0, ""Pb"": 1.0, ""Sb"": 3.0, ""S"": 6.0}",872.71,#708090,orthorhombic,"{""system"": ""orthorhombic"", ""scale"": [0.8, 1.0, 1.2], ""optical"": {""transparent"": 0, ""refraction"": 0.0, ""birefringence"": 0.0}}"
Senarmontite,Sb2O3,"{""Sb"": 2.0, ""O"": 3.0}",291.52,#A9A9A9,cubic,"{""system"": ""cubic"", ""scale"": [1.0, 1.0, 1.0], ""optical"": {""transparent"": 0, ""refraction"": 0.0, ""birefringence"": 0.0}}"
Senegalite,Al2(PO4)(OH)3·H2O,"{""Al"": 2.0, ""P"": 1.0, ""O"": 8.0, ""H"": 5.0}",217.97,#FFFFFF,orthorhombic,"{""system"": ""orthorhombic"", ""scale"": [0.8, 1.0, 1.2], ""optical"": {""transparent"": 1, ""refraction"": 1.5, ""birefringence"": 0.01}}"
Sengierite,Cu2(UO2)2(VO4)2(OH)2·6H2O,"{""Cu"": 2.0, ""U"": 2.0, ""O"": 20.0, ""V"": 2.0, ""H"": 14.0}",1039.15,#FFFFFF,monoclinic,"{""system"": ""monoclinic"", ""scale"": [0.7, 1.0, 1.3], ""optical"": {""transparent"": 1, ""refraction"": 1.5, ""birefringence"": 0.01}}"
Senkevichite,CsNaKCa2TiOSi7O18(OH),"{""Cs"": 1.0, ""Na"": 1.0, ""K"": 1.0, ""Ca"": 2.0, ""Ti"": 1.0, ""O"": 20.0, ""Si"": 7.0, ""H"": 1.0}",840.67,#FFFFFF,triclinic,"{""system"": ""triclinic"", ""scale"": [0.7, 1.0, 1.3], ""optical"": {""transparent"": 1, ""refraction"": 1.5, ""birefringence"": 0.01}}"
Sepiolite,Mg4Si6O15(OH)2·6H2O,"{""Mg"": 4.0, ""Si"": 6.0, ""O"": 23.0, ""H"": 14.0}",647.89,#FFFFFF,orthorhombic,"{""system"": ""orthorhombic"", ""scale"": [0.8, 1.0, 1.2], ""optical"": {""transparent"": 1, ""refraction"": 1.5, ""birefringence"": 0.01}}"
Serendibite,Ca4[Mg6Al6]O4[Si6B3Al3O36],"{""Ca"": 4.0, ""Mg"": 6.0, ""Al"": 9.0, ""O"": 40.0, ""Si"": 6.0, ""B"": 3.0}",1389.97,#FFFFFF,triclinic,"{""system"": ""triclinic"", ""scale"": [0.7, 1.0, 1.3], ""optical"": {""transparent"": 1, ""refraction"": 1.5, ""birefringence"": 0.01}}"
Sergeevite,Ca2Mg11(CO3)9(HCO3)4(OH)4·6H2O,"{""Ca"": 2.0, ""Mg"": 11.0, ""C"": 13.0, ""O"": 49.0, ""H"": 20.0}",1307.86,#FFFFFF,hexagonal,"{""system"": ""hexagonal"", ""scale"": [1.0, 1.0, 1.6], ""optical"": {""transparent"": 1, ""refraction"": 1.5, ""birefringence"": 0.01}}"
Sewardite,CaFe3+2(AsO4)2(OH)2,"{""Ca"": 1.0, ""Fe"": 2.0, ""As"": 2.0, ""O"": 10.0, ""H"": 2.0}",463.64,#556B2F,orthorhombic,"{""system"": ""orthorhombic"", ""scale"": [0.8, 1.0, 1.2], ""optical"": {""transparent"": 0, ""refraction"": 0.0, ""birefringence"": 0.0}}"
Shabaite-(Nd),CaNd2(UO2)(CO3)4(OH)2·6H2O,"{""Ca"": 1.0, ""Nd"": 2.0, ""U"": 1.0, ""O"": 22.0, ""C"": 4.0, ""H"": 14.0}",980.74,#FFFFFF,monoclinic,"{""system"": ""monoclinic"", ""scale"": [0.7, 1.0, 1.3], ""optical"": {""transparent"": 1, ""refraction"": 1.5, ""birefringence"": 0.01}}"
Shabynite,Mg5(BO3)(OH)5Cl2·4H2O,"{""Mg"": 5.0, ""B"": 1.0, ""O"": 12.0, ""H"": 13.0, ""Cl"": 2.0}",408.36,#FFFFFF,,"{""system"": """", ""scale"": [1.0, 1.0, 1.0], ""optical"": {""transparent"": 1, ""refraction"": 1.5, ""birefringence"": 0.01}}"
Shagamite,KFe11O17,"{""K"": 1.0, ""Fe"": 11.0, ""O"": 17.0}",925.45,#8B4513,hexagonal,"{""system"": ""hexagonal"", ""scale"": [1.0, 1.0, 1.6], ""optical"": {""transparent"": 0, ""refraction"": 0.0, ""birefringence"": 0.0}}"
Shakhdaraite-(Y),ScYNb2O8,"{""Sc"": 1.0, ""Y"": 1.0, ""Nb"": 2.0, ""O"": 8.0}",447.69,#FFFFFF,monoclinic,"{""system"": ""monoclinic"", ""scale"": [0.7, 1.0, 1.3], ""optical"": {""transparent"": 1, ""refraction"": 1.5, ""birefringence"": 0.01}}"
Shakhovite,Hg1+4Sb5+O3(OH)3,"{""Hg"": 4.0, ""Sb"": 1.0, ""O"": 6.0, ""H"": 3.0}",1023.14,#FFFFFF,monoclinic,"{""system"": ""monoclinic"", ""scale"": [0.7, 1.0, 1.3], ""optical"": {""transparent"": 1, ""refraction"": 1.5, ""birefringence"": 0.01}}"
Shandite,Ni3Pb2S2,"{""Ni"": 3.0, ""Pb"": 2.0, ""S"": 2.0}",654.59,#708090,hexagonal,"{""system"": ""hexagonal"", ""scale"": [1.0, 1.0, 1.6], ""optical"": {""transparent"": 0, ""refraction"": 0.0, ""birefringence"": 0.0}}"
Shannonite,Pb2O(CO3),"{""Pb"": 2.0, ""O"": 4.0, ""C"": 1.0}",490.41,#FFFFFF,orthorhombic,"{""system"": ""orthorhombic"", ""scale"": [0.8, 1.0, 1.2], ""optical"": {""transparent"": 1, ""refraction"": 1.5, ""birefringence"": 0.01}}"
Sharpite,Ca(UO2)3(CO3)4·3H2O,"{""Ca"": 1.0, ""U"": 3.0, ""O"": 21.0, ""C"": 4.0, ""H"": 6.0}",1144.26,#FFFFFF,orthorhombic,"{""system"": ""orthorhombic"", ""scale"": [0.8, 1.0, 1.2], ""optical"": {""transparent"": 1, ""refraction"": 1.5, ""birefringence"": 0.01}}"
Sharyginite,Ca3TiFe2O8,"{""Ca"": 3.0, ""Ti"": 1.0, ""Fe"": 2.0, ""O"": 8.0}",407.81,#556B2F,orthorhombic,"{""system"": ""orthorhombic"", ""scale"": [0.8, 1.0, 1.2], ""optical"": {""transparent"": 0, ""refraction"": 0.0, ""birefringence"": 0.0}}"
Shasuite,CaNi3(P2O7)2,"{""Ca"": 1.0, ""Ni"": 3.0, ""P"": 4.0, ""O"": 14.0}",564.03,#FFFFFF,monoclinic,"{""system"": ""monoclinic"", ""scale"": [0.7, 1.0, 1.3], ""optical"": {""transparent"": 1, ""refraction"": 1.5, ""birefringence"": 0.01}}"
Shattuckite,Cu5(SiO3)4(OH)2,"{""Cu"": 5.0, ""Si"": 4.0, ""O"": 14.0, ""H"": 2.0}",656.13,#FFFFFF,orthorhombic,"{""system"": ""orthorhombic"", ""scale"": [0.8, 1.0, 1.2], ""optical"": {""transparent"": 1, ""refraction"": 1.5, ""birefringence"": 0.01}}"
Shcherbakovite,K2NaTi2O(OH)Si4O12,"{""K"": 2.0, ""Na"": 1.0, ""Ti"": 2.0, ""O"": 14.0, ""H"": 1.0, ""Si"": 4.0}",534.3,#FFFFFF,orthorhombic,"{""system"": ""orthorhombic"", ""scale"": [0.8, 1.0, 1.2], ""optical"": {""transparent"": 1, ""refraction"": 1.5, ""birefringence"": 0.01}}"
Shcherbinaite,V2O5,"{""V"": 2.0, ""O"": 5.0}",181.88,#FFFFFF,orthorhombic,"{""system"": ""orthorhombic"", ""scale"": [0.8, 1.0, 1.2], ""optical"": {""transparent"": 1, ""refraction"": 1.5, ""birefringence"": 0.01}}"
Shchurovskyite,K2CaCu6O2(AsO4)4,"{""K"": 2.0, ""Ca"": 1.0, ""Cu"": 6.0, ""O"": 18.0, ""As"": 4.0}",1087.26,#FFFFFF,monoclinic,"{""system"": ""monoclinic"", ""scale"": [0.7, 1.0, 1.3], ""optical"": {""transparent"": 1, ""refraction"": 1.5, ""birefringence"": 0.01}}"
Sheldrickite,NaCa3(CO3)2F3·H2O,"{""Na"": 1.0, ""Ca"": 3.0, ""C"": 2.0, ""O"": 7.0, ""F"": 3.0, ""H"": 2.0}",338.27,#FFFFFF,hexagonal,"{""system"": ""hexagonal"", ""scale"": [1.0, 1.0, 1.6], ""optical"": {""transparent"": 1, ""refraction"": 1.5, ""birefringence"": 0.01}}"
Shenganfuite,PbTe4+3O5(OH)Cl3(H2O),"{""Pb"": 1.0, ""Te"": 3.0, ""O"": 7.0, ""H"": 3.0, ""Cl"": 3.0}",811.37,#FFFFFF,triclinic,"{""system"": ""triclinic"", ""scale"": [0.7, 1.0, 1.3], ""optical"": {""transparent"": 1, ""refraction"": 1.5, ""birefringence"": 0.01}}"
Shenzhuangite,NiFeS2,"{""Ni"": 1.0, ""Fe"": 1.0, ""S"": 2.0}",178.66,#DAA520,tetragonal,"{""system"": ""tetragonal"", ""scale"": [1.0, 1.0, 1.4], ""optical"": {""transparent"": 0, ""refraction"": 0.0, ""birefringence"": 0.0}}"
Shijiangshanite,Pb3CaAl(Si5O14)(OH)3·3H2O,"{""Pb"": 3.0, ""Ca"": 1.0, ""Al"": 1.0, ""Si"": 5.0, ""O"": 20.0, ""H"": 9.0}",1158.18,#FFFFFF,hexagonal,"{""system"": ""hexagonal"", ""scale"": [1.0, 1.0, 1.6], ""optical"": {""transparent"": 1, ""refraction"": 1.5, ""birefringence"": 0.01}}"
Shilovite,Cu(NH3)4(NO3)2,"{""Cu"": 1.0, ""N"": 6.0, ""H"": 12.0, ""O"": 6.0}",255.71,#FFFFFF,orthorhombic,"{""system"": ""orthorhombic"", ""scale"": [0.8, 1.0, 1.2], ""optical"": {""transparent"": 1, ""refraction"": 1.5, ""birefringence"": 0.01}}"
Shimazakiite,Ca2B2O5,"{""Ca"": 2.0, ""B"": 2.0, ""O"": 5.0}",181.78,#FFFFFF,orthorhombic,"{""system"": ""orthorhombic"", ""scale"": [0.8, 1.0, 1.2], ""optical"": {""transparent"": 1, ""refraction"": 1.5, ""birefringence"": 0.01}}"
Shinarumpite,[Co(H2O)6][(UO2)(SO4)2(H2O)]·4H2O,"{""Co"": 1.0, ""H"": 22.0, ""O"": 21.0, ""U"": 1.0, ""S"": 2.0}",719.26,#FFFFFF,monoclinic,"{""system"": ""monoclinic"", ""scale"": [0.7, 1.0, 1.3], ""optical"": {""transparent"": 1, ""refraction"": 1.5, ""birefringence"": 0.01}}"
Shinichengite,Ca5[BSi2O7(OH)2]2·6H2O,"{""Ca"": 5.0, ""B"": 2.0, ""Si"": 4.0, ""O"": 24.0, ""H"": 16.0}",734.51,#FFFFFF,triclinic,"{""system"": ""triclinic"", ""scale"": [0.7, 1.0, 1.3], ""optical"": {""transparent"": 1, ""refraction"": 1.5, ""birefringence"": 0.01}}"
Shiranuiite,Cu1+(Rh3+Rh4+)S4,"{""Cu"": 1.0, ""Rh"": 2.0, ""S"": 4.0}",397.61,#A9A9A9,cubic,"{""system"": ""cubic"", ""scale"": [1.0, 1.0, 1.0], ""optical"": {""transparent"": 0, ""refraction"": 0.0, ""birefringence"": 0.0}}"
Shirokshinite,K(Mg2Na)Si4O10F2,"{""K"": 1.0, ""Mg"": 2.0, ""Na"": 1.0, ""Si"": 4.0, ""O"": 10.0, ""F"": 2.0}",421.07,#FFFFFF,monoclinic,"{""system"": ""monoclinic"", ""scale"": [0.7, 1.0, 1.3], ""optical"": {""transparent"": 1, ""refraction"": 1.5, ""birefringence"": 0.01}}"
Shkatulkalite,Na2Nb2Na3Ti(Si2O7)2O2(FO)(H2O)4(H2O)3,"{""Na"": 5.0, ""Nb"": 2.0, ""Ti"": 1.0, ""Si"": 4.0, ""O"": 24.0, ""F"": 1.0, ""H"": 14.0}",878.11,#FFFFFF,monoclinic,"{""system"": ""monoclinic"", ""scale"": [0.7, 1.0, 1.3], ""optical"": {""transparent"": 1, ""refraction"": 1.5, ""birefringence"": 0.01}}"
Shlykovite,KCa[Si4O9(OH)]·3H2O,"{""K"": 1.0, ""Ca"": 1.0, ""Si"": 4.0, ""O"": 13.0, ""H"": 7.0}",406.6,#FFFFFF,monoclinic,"{""system"": ""monoclinic"", ""scale"": [0.7, 1.0, 1.3], ""optical"": {""transparent"": 1, ""refraction"": 1.5, ""birefringence"": 0.01}}"
Shojiite,Na(NaMg)Mg5Si8O22(OH)2,"{""Na"": 2.0, ""Mg"": 6.0, ""Si"": 8.0, ""O"": 24.0, ""H"": 2.0}",802.58,#FFFFFF,monoclinic,"{""system"": ""monoclinic"", ""scale"": [0.7, 1.0, 1.3], ""optical"": {""transparent"": 1, ""refraction"": 1.5, ""birefringence"": 0.01}}"
Shomiokite-(Y),Na3Y(CO3)3·3H2O,"{""Na"": 3.0, ""Y"": 1.0, ""C"": 3.0, ""O"": 12.0, ""H"": 6.0}",391.96,#FFFFFF,orthorhombic,"{""system"": ""orthorhombic"", ""scale"": [0.8, 1.0, 1.2], ""optical"": {""transparent"": 1, ""refraction"": 1.5, ""birefringence"": 0.01}}"
Shortite,Na2Ca2(CO3)3,"{""Na"": 2.0, ""Ca"": 2.0, ""C"": 3.0, ""O"": 9.0}",306.17,#FFFFFF,orthorhombic,"{""system"": ""orthorhombic"", ""scale"": [0.8, 1.0, 1.2], ""optical"": {""transparent"": 1, ""refraction"": 1.5, ""birefringence"": 0.01}}"
Shuangfengite,IrTe2,"{""Ir"": 1.0, ""Te"": 2.0}",447.42,#FFFFFF,hexagonal,"{""system"": ""hexagonal"", ""scale"": [1.0, 1.0, 1.6], ""optical"": {""transparent"": 1, ""refraction"": 1.5, ""birefringence"": 0.01}}"
Shubnikovite,Ca2Cu8(AsO4)6Cl(OH)·7H2O (?),"{""Ca"": 2.0, ""Cu"": 8.0, ""As"": 6.0, ""O"": 32.0, ""Cl"": 1.0, ""H"": 15.0}",1600.65,#FFFFFF,,"{""system"": """", ""scale"": [1.0, 1.0, 1.0], ""optical"": {""transparent"": 1, ""refraction"": 1.5, ""birefringence"": 0.01}}"
Shuiskite-(Cr),Ca2CrCr2[SiO4][Si2O6(OH)](OH)2O,"{""Ca"": 2.0, ""Cr"": 3.0, ""Si"": 3.0, ""O"": 14.0, ""H"": 3.0}",547.45,#FFFFFF,monoclinic,"{""system"": ""monoclinic"", ""scale"": [0.7, 1.0, 1.3], ""optical"": {""transparent"": 1, ""refraction"": 1.5, ""birefringence"": 0.01}}"
Shuiskite-(Mg),Ca2MgCr2(Si2O7)(SiO4)(OH)2·H2O,"{""Ca"": 2.0, ""Mg"": 1.0, ""Cr"": 2.0, ""Si"": 3.0, ""O"": 14.0, ""H"": 4.0}",520.77,#FFFFFF,monoclinic,"{""system"": ""monoclinic"", ""scale"": [0.7, 1.0, 1.3], ""optical"": {""transparent"": 1, ""refraction"": 1.5, ""birefringence"": 0.01}}"
Shulamitite,Ca3TiFe3+AlO8,"{""Ca"": 3.0, ""Ti"": 1.0, ""Fe"": 1.0, ""Al"": 1.0, ""O"": 8.0}",378.94,#556B2F,orthorhombic,"{""system"": ""orthorhombic"", ""scale"": [0.8, 1.0, 1.2], ""optical"": {""transparent"": 0, ""refraction"": 0.0, ""birefringence"": 0.0}}"
Shumwayite,[(UO2)(SO4)(H2O)2]2·H2O,"{""U"": 2.0, ""O"": 17.0, ""S"": 2.0, ""H"": 10.0}",822.26,#FFFFFF,monoclinic,"{""system"": ""monoclinic"", ""scale"": [0.7, 1.0, 1.3], ""optical"": {""transparent"": 1, ""refraction"": 1.5, ""birefringence"": 0.01}}"
Shuvalovite,K2(Ca2Na)(SO4)3F,"{""K"": 2.0, ""Ca"": 2.0, ""Na"": 1.0, ""S"": 3.0, ""O"": 12.0, ""F"": 1.0}",488.53,#FFFFFF,orthorhombic,"{""system"": ""orthorhombic"", ""scale"": [0.8, 1.0, 1.2], ""optical"": {""transparent"": 1, ""refraction"": 1.5, ""birefringence"": 0.01}}"
Sibirskite,CaH(BO3),"{""Ca"": 1.0, ""H"": 1.0, ""B"": 1.0, ""O"": 3.0}",99.9,#FFFFFF,monoclinic,"{""system"": ""monoclinic"", ""scale"": [0.7, 1.0, 1.3], ""optical"": {""transparent"": 1, ""refraction"": 1.5, ""birefringence"": 0.01}}"
Siderite,Fe(CO3),"{""Fe"": 1.0, ""C"": 1.0, ""O"": 3.0}",115.86,#8B4513,hexagonal,"{""system"": ""hexagonal"", ""scale"": [1.0, 1.0, 1.6], ""optical"": {""transparent"": 0, ""refraction"": 0.0, ""birefringence"": 0.0}}"
Sideronatrite,Na2Fe3+(SO4)2(OH)·3H2O,"{""Na"": 2.0, ""Fe"": 1.0, ""S"": 2.0, ""O"": 12.0, ""H"": 7.0}",365.01,#556B2F,orthorhombic,"{""system"": ""orthorhombic"", ""scale"": [0.8, 1.0, 1.2], ""optical"": {""transparent"": 0, ""refraction"": 0.0, ""birefringence"": 0.0}}"
Siderophyllite,KFe2+2Al(Si2Al2)O10(OH)2,"{""K"": 1.0, ""Fe"": 2.0, ""Al"": 3.0, ""Si"": 2.0, ""O"": 12.0, ""H"": 2.0}",481.94,#556B2F,hexagonal,"{""system"": ""hexagonal"", ""scale"": [1.0, 1.0, 1.6], ""optical"": {""transparent"": 0, ""refraction"": 0.0, ""birefringence"": 0.0}}"
Siderotil,Fe(SO4)·5H2O,"{""Fe"": 1.0, ""S"": 1.0, ""O"": 9.0, ""H"": 10.0}",241.99,#556B2F,triclinic,"{""system"": ""triclinic"", ""scale"": [0.7, 1.0, 1.3], ""optical"": {""transparent"": 0, ""refraction"": 0.0, ""birefringence"": 0.0}}"
Sidorovite,PtFe3,"{""Pt"": 1.0, ""Fe"": 3.0}",362.63,#8B4513,cubic,"{""system"": ""cubic"", ""scale"": [1.0, 1.0, 1.0], ""optical"": {""transparent"": 0, ""refraction"": 0.0, ""birefringence"": 0.0}}"
Sidpietersite,Pb2+4(S2O3)O2(OH)2,"{""Pb"": 4.0, ""S"": 2.0, ""O"": 7.0, ""H"": 2.0}",1006.94,#FFFFFF,triclinic,"{""system"": ""triclinic"", ""scale"": [0.7, 1.0, 1.3], ""optical"": {""transparent"": 1, ""refraction"": 1.5, ""birefringence"": 0.01}}"
Sidwillite,MoO3·2H2O,"{""Mo"": 1.0, ""O"": 5.0, ""H"": 4.0}",179.98,#FFFFFF,monoclinic,"{""system"": ""monoclinic"", ""scale"": [0.7, 1.0, 1.3], ""optical"": {""transparent"": 1, ""refraction"": 1.5, ""birefringence"": 0.01}}"
Siegenite,CoNi2S4,"{""Co"": 1.0, ""Ni"": 2.0, ""S"": 4.0}",304.55,#A9A9A9,cubic,"{""system"": ""cubic"", ""scale"": [1.0, 1.0, 1.0], ""optical"": {""transparent"": 0, ""refraction"": 0.0, ""birefringence"": 0.0}}"
Sieleckiite,Cu3Al4(PO4)2(OH)12·2H2O,"{""Cu"": 3.0, ""Al"": 4.0, ""P"": 2.0, ""O"": 22.0, ""H"": 16.0}",728.64,#FFFFFF,triclinic,"{""system"": ""triclinic"", ""scale"": [0.7, 1.0, 1.3], ""optical"": {""transparent"": 1, ""refraction"": 1.5, ""birefringence"": 0.01}}"
Sigismundite,BaFe2+(CaNa2)Fe2+13Al(PO4)11(PO3OH)(OH)2,"{""Ba"": 1.0, ""Fe"": 14.0, ""Ca"": 1.0, ""Na"": 2.0, ""Al"": 1.0, ""P"": 12.0, ""O"": 50.0, ""H"": 3.0}",2206.93,#556B2F,monoclinic,"{""system"": ""monoclinic"", ""scale"": [0.7, 1.0, 1.3], ""optical"": {""transparent"": 0, ""refraction"": 0.0, ""birefringence"": 0.0}}"
Sigloite,Fe3+Al2(PO4)2(OH)3·7H2O,"{""Fe"": 1.0, ""Al"": 2.0, ""P"": 2.0, ""O"": 18.0, ""H"": 17.0}",476.89,#556B2F,triclinic,"{""system"": ""triclinic"", ""scale"": [0.7, 1.0, 1.3], ""optical"": {""transparent"": 0, ""refraction"": 0.0, ""birefringence"": 0.0}}"
Siidraite,Pb2Cu(OH)2I3,"{""Pb"": 2.0, ""Cu"": 1.0, ""O"": 2.0, ""H"": 2.0, ""I"": 3.0}",892.67,#FFFFFF,orthorhombic,"{""system"": ""orthorhombic"", ""scale"": [0.8, 1.0, 1.2], ""optical"": {""transparent"": 1, ""refraction"": 1.5, ""birefringence"": 0.01}}"
Silhydrite,Si3O6·H2O,"{""Si"": 3.0, ""O"": 7.0, ""H"": 2.0}",198.29,#FFFFFF,orthorhombic,"{""system"": ""orthorhombic"", ""scale"": [0.8, 1.0, 1.2], ""optical"": {""transparent"": 1, ""refraction"": 1.5, ""birefringence"": 0.01}}"
Silicocarnotite,Ca5[(PO4)(SiO4)](PO4),"{""Ca"": 5.0, ""P"": 2.0, ""O"": 12.0, ""Si"": 1.0}",482.43,#FFFFFF,orthorhombic,"{""system"": ""orthorhombic"", ""scale"": [0.8, 1.0, 1.2], ""optical"": {""transparent"": 1, ""refraction"": 1.5, ""birefringence"": 0.01}}"
Silicon,Si,"{""Si"": 1.0}",28.09,#FFFFFF,orthorhombic,"{""system"": ""orthorhombic"", ""scale"": [0.8, 1.0, 1.2], ""optical"": {""transparent"": 1, ""refraction"": 1.5, ""birefringence"": 0.01}}"
Silinaite,NaLiSi2O5·2H2O,"{""Na"": 1.0, ""Li"": 1.0, ""Si"": 2.0, ""O"": 7.0, ""H"": 4.0}",202.14,#FFFFFF,monoclinic,"{""system"": ""monoclinic"", ""scale"": [0.7, 1.0, 1.3], ""optical"": {""transparent"": 1, ""refraction"": 1.5, ""birefringence"": 0.01}}"
Sillenite,Bi12SiO20,"{""Bi"": 12.0, ""Si"": 1.0, ""O"": 20.0}",2855.85,#D2B48C,cubic,"{""system"": ""cubic"", ""scale"": [1.0, 1.0, 1.0], ""optical"": {""transparent"": 0, ""refraction"": 0.0, ""birefringence"": 0.0}}"
Sillimanite,Al2SiO5,"{""Al"": 2.0, ""Si"": 1.0, ""O"": 5.0}",162.05,#FFFFFF,orthorhombic,"{""system"": ""orthorhombic"", ""scale"": [0.8, 1.0, 1.2], ""optical"": {""transparent"": 1, ""refraction"": 1.5, ""birefringence"": 0.01}}"
Silver,Ag,"{""Ag"": 1.0}",107.87,#C0C0C0,hexagonal,"{""system"": ""hexagonal"", ""scale"": [1.0, 1.0, 1.6], ""optical"": {""transparent"": 0, ""refraction"": 0.0, ""birefringence"": 0.0}}"