name,formula,elements,density,color,crystal_system,dna
Kusachiite,Cu2+Bi3+2O4,"{""Cu"": 1.0, ""Bi"": 2.0, ""O"": 4.0}",545.51,#00BFFF,tetragonal,"{""system"": ""tetragonal"", ""scale"": [1.0, 1.0, 1.4], ""optical"": {""transparent"": 0, ""refraction"": 0.0, ""birefringence"": 0.0}}"
Kushiroite,CaAlAlSiO6,"{""Ca"": 1.0, ""Al"": 2.0, ""Si"": 1.0, ""O"": 6.0}",218.13,#FFFFFF,monoclinic,"{""system"": ""monoclinic"", ""scale"": [0.7, 1.0, 1.3], ""optical"": {""transparent"": 1, ""refraction"": 1.5, ""birefringence"": 0.01}}"
Kutinaite,Ag6Cu14As7,"{""Ag"": 6.0, ""Cu"": 14.0, ""As"": 7.0}",2061.36,#00BFFF,cubic,"{""system"": ""cubic"", ""scale"": [1.0, 1.0, 1.0], ""optical"": {""transparent"": 0, ""refraction"": 0.0, ""birefringence"": 0.0}}"
Kuvaevite,Ir5Ni10S16,"{""Ir"": 5.0, ""Ni"": 10.0, ""S"": 16.0}",2060.96,#A9A9A9,hexagonal,"{""system"": ""hexagonal"", ""scale"": [1.0, 1.0, 1.6], ""optical"": {""transparent"": 0, ""refraction"": 0.0, ""birefringence"": 0.0}}"
Kuzelite,Ca4Al2(OH)12(SO4)·6H2O,"{""Ca"": 4.0, ""Al"": 2.0, ""O"": 22.0, ""H"": 24.0, ""S"": 1.0}",622.53,#FFFFFF,hexagonal,"{""system"": ""hexagonal"", ""scale"": [1.0, 1.0, 1.6], ""optical"": {""transparent"": 1, ""refraction"": 1.5, ""birefringence"": 0.01}}"
Kuzminite,HgBr,"{""Hg"": 1.0, ""Br"": 1.0}",280.49,#FFFFFF,tetragonal,"{""system"": ""tetragonal"", ""scale"": [1.0, 1.0, 1.4], ""optical"": {""transparent"": 1, ""refraction"": 1.5, ""birefringence"": 0.01}}"
Kuznetsovite,Hg1+2Hg2+(AsO4)Cl,"{""Hg"": 3.0, ""As"": 1.0, ""O"": 4.0, ""Cl"": 1.0}",776.14,#FFFFFF,cubic,"{""system"": ""cubic"", ""scale"": [1.0, 1.0, 1.0], ""optical"": {""transparent"": 1, ""refraction"": 1.5, ""birefringence"": 0.0}}"
Kvacekite,NiSbSe,"{""Ni"": 1.0, ""Sb"": 1.0, ""Se"": 1.0}",259.41,#7FFF00,cubic,"{""system"": ""cubic"", ""scale"": [1.0, 1.0, 1.0], ""optical"": {""transparent"": 0, ""refraction"": 0.0, ""birefringence"": 0.0}}"
Kvanefjeldite,Na4CaSi6O14(OH)2,"{""Na"": 4.0, ""Ca"": 1.0, ""Si"": 6.0, ""O"": 16.0, ""H"": 2.0}",558.6,#FFFFFF,orthorhombic,"{""system"": ""orthorhombic"", ""scale"": [0.8, 1.0, 1.2], ""optical"": {""transparent"": 1, ""refraction"": 1.5, ""birefringence"": 0.01}}"
Kyanite,Al2OSiO4,"{""Al"": 2.0, ""O"": 5.0, ""Si"": 1.0}",162.05,#FFFFFF,triclinic,"{""system"": ""triclinic"", ""scale"": [0.7, 1.0, 1.3], ""optical"": {""transparent"": 1, ""refraction"": 1.5, ""birefringence"": 0.01}}"
Kyawthuite,Bi3+Sb5+O4,"{""Bi"": 1.0, ""Sb"": 1.0, ""O"": 4.0}",394.74,#A9A9A9,monoclinic,"{""system"": ""monoclinic"", ""scale"": [0.7, 1.0, 1.3], ""optical"": {""transparent"": 0, ""refraction"": 0.0, ""birefringence"": 0.0}}"
Kyzylkumite,Ti2V3+O5(OH),"{""Ti"": 2.0, ""V"": 1.0, ""O"": 6.0, ""H"": 1.0}",243.69,#FFFFFF,monoclinic,"{""system"": ""monoclinic"", ""scale"": [0.7, 1.0, 1.3], ""optical"": {""transparent"": 1, ""refraction"": 1.5, ""birefringence"": 0.01}}"
Labuntsovite-Fe,Na4K4Fe2+2Ti8O4(Si4O12)4(OH)4·10-12H2O,"{""Na"": 4.0, ""K"": 4.0, ""Fe"": 2.0, ""Ti"": 8.0, ""O"": 68.0, ""Si"": 16.0, ""H"": 28.0}",2308.68,#556B2F,monoclinic,"{""system"": ""monoclinic"", ""scale"": [0.7, 1.0, 1.3], ""optical"": {""transparent"": 0, ""refraction"": 0.0, ""birefringence"": 0.0}}"
Labuntsovite-Mg,Na4K4Mg2Ti8O4(Si4O12)4(OH)4·10-12H2O,"{""Na"": 4.0, ""K"": 4.0, ""Mg"": 2.0, ""Ti"": 8.0, ""O"": 68.0, ""Si"": 16.0, ""H"": 28.0}",2245.6,#FFFFFF,monoclinic,"{""system"": ""monoclinic"", ""scale"": [0.7, 1.0, 1.3], ""optical"": {""transparent"": 1, ""refraction"": 1.5, ""birefringence"": 0.01}}"
Lacroixite,NaAl(PO4)F,"{""Na"": 1.0, ""Al"": 1.0, ""P"": 1.0, ""O"": 4.0, ""F"": 1.0}",163.94,#FFFFFF,monoclinic,"{""system"": ""monoclinic"", ""scale"": [0.7, 1.0, 1.3], ""optical"": {""transparent"": 1, ""refraction"": 1.5, ""birefringence"": 0.01}}"
Laffittite,AgHgAsS3,"{""Ag"": 1.0, ""Hg"": 1.0, ""As"": 1.0, ""S"": 3.0}",479.56,#FFD700,monoclinic,"{""system"": ""monoclinic"", ""scale"": [0.7, 1.0, 1.3], ""optical"": {""transparent"": 0, ""refraction"": 0.0, ""birefringence"": 0.0}}"
Laflammeite,Pd3Pb2S2,"{""Pd"": 3.0, ""Pb"": 2.0, ""S"": 2.0}",797.78,#708090,monoclinic,"{""system"": ""monoclinic"", ""scale"": [0.7, 1.0, 1.3], ""optical"": {""transparent"": 0, ""refraction"": 0.0, ""birefringence"": 0.0}}"
Lafossaite,TlCl,"{""Tl"": 1.0, ""Cl"": 1.0}",239.83,#FFFFFF,cubic,"{""system"": ""cubic"", ""scale"": [1.0, 1.0, 1.0], ""optical"": {""transparent"": 1, ""refraction"": 1.5, ""birefringence"": 0.0}}"
Lakargiite,CaZrO3,"{""Ca"": 1.0, ""Zr"": 1.0, ""O"": 3.0}",179.3,#FFFFFF,orthorhombic,"{""system"": ""orthorhombic"", ""scale"": [0.8, 1.0, 1.2], ""optical"": {""transparent"": 1, ""refraction"": 1.5, ""birefringence"": 0.01}}"
Lakebogaite,NaCaFe2H(UO2)2(PO4)4(OH)2·8H2O,"{""Na"": 1.0, ""Ca"": 1.0, ""Fe"": 2.0, ""H"": 19.0, ""U"": 2.0, ""O"": 30.0, ""P"": 4.0}",1273.86,#556B2F,monoclinic,"{""system"": ""monoclinic"", ""scale"": [0.7, 1.0, 1.3], ""optical"": {""transparent"": 0, ""refraction"": 0.0, ""birefringence"": 0.0}}"
Lammerite,Cu3(AsO4)2,"{""Cu"": 3.0, ""As"": 2.0, ""O"": 8.0}",468.49,#00BFFF,monoclinic,"{""system"": ""monoclinic"", ""scale"": [0.7, 1.0, 1.3], ""optical"": {""transparent"": 0, ""refraction"": 0.0, ""birefringence"": 0.0}}"
Lamprophyllite,(SrNa)Ti2Na3Ti(Si2O7)2O2(OH)2,"{""Sr"": 1.0, ""Na"": 4.0, ""Ti"": 3.0, ""Si"": 4.0, ""O"": 18.0, ""H"": 2.0}",725.57,#FFFFFF,orthorhombic,"{""system"": ""orthorhombic"", ""scale"": [0.8, 1.0, 1.2], ""optical"": {""transparent"": 1, ""refraction"": 1.5, ""birefringence"": 0.01}}"
Lanarkite,Pb2O(SO4),"{""Pb"": 2.0, ""O"": 5.0, ""S"": 1.0}",526.46,#FFFF00,monoclinic,"{""system"": ""monoclinic"", ""scale"": [0.7, 1.0, 1.3], ""optical"": {""transparent"": 0, ""refraction"": 0.0, ""birefringence"": 0.0}}"
Langbeinite,K2Mg2(SO4)3,"{""K"": 2.0, ""Mg"": 2.0, ""S"": 3.0, ""O"": 12.0}",415.0,#FFFFFF,cubic,"{""system"": ""cubic"", ""scale"": [1.0, 1.0, 1.0], ""optical"": {""transparent"": 1, ""refraction"": 1.5, ""birefringence"": 0.0}}"
Langhofite,Pb2(OH)[WO4(OH)],"{""Pb"": 2.0, ""O"": 6.0, ""H"": 2.0, ""W"": 1.0}",696.26,#FFFFFF,triclinic,"{""system"": ""triclinic"", ""scale"": [0.7, 1.0, 1.3], ""optical"": {""transparent"": 1, ""refraction"": 1.5, ""birefringence"": 0.01}}"
Langisite,CoAs,"{""Co"": 1.0, ""As"": 1.0}",133.85,#4169E1,orthorhombic,"{""system"": ""orthorhombic"", ""scale"": [0.8, 1.0, 1.2], ""optical"": {""transparent"": 0, ""refraction"": 0.0, ""birefringence"": 0.0}}"
Langite,Cu4(SO4)(OH)6·2H2O,"{""Cu"": 4.0, ""S"": 1.0, ""O"": 12.0, ""H"": 10.0}",488.34,#FFFFFF,monoclinic,"{""system"": ""monoclinic"", ""scale"": [0.7, 1.0, 1.3], ""optical"": {""transparent"": 1, ""refraction"": 1.5, ""birefringence"": 0.01}}"
Lanmuchangite,TlAl(SO4)2·12H2O,"{""Tl"": 1.0, ""Al"": 1.0, ""S"": 2.0, ""O"": 20.0, ""H"": 24.0}",639.67,#FFFFFF,cubic,"{""system"": ""cubic"", ""scale"": [1.0, 1.0, 1.0], ""optical"": {""transparent"": 1, ""refraction"": 1.5, ""birefringence"": 0.0}}"
Lannonite,HCa4Mg2Al4(SO4)8F9·32H2O,"{""H"": 65.0, ""Ca"": 4.0, ""Mg"": 2.0, ""Al"": 4.0, ""S"": 8.0, ""O"": 64.0, ""F"": 9.0}",1833.86,#FFFFFF,tetragonal,"{""system"": ""tetragonal"", ""scale"": [1.0, 1.0, 1.4], ""optical"": {""transparent"": 1, ""refraction"": 1.5, ""birefringence"": 0.01}}"
Lansfordite,Mg(CO3)·5H2O,"{""Mg"": 1.0, ""C"": 1.0, ""O"": 8.0, ""H"": 10.0}",174.4,#FFFFFF,monoclinic,"{""system"": ""monoclinic"", ""scale"": [0.7, 1.0, 1.3], ""optical"": {""transparent"": 1, ""refraction"": 1.5, ""birefringence"": 0.01}}"
Lanthanite-(Ce),Ce2(CO3)3·8H2O,"{""Ce"": 2.0, ""C"": 3.0, ""O"": 17.0, ""H"": 16.0}",604.4,#FFFFFF,orthorhombic,"{""system"": ""orthorhombic"", ""scale"": [0.8, 1.0, 1.2], ""optical"": {""transparent"": 1, ""refraction"": 1.5, ""birefringence"": 0.01}}"
Lanthanite-(La),La2(CO3)3·8H2O,"{""La"": 2.0, ""C"": 3.0, ""O"": 17.0, ""H"": 16.0}",601.98,#FFFFFF,orthorhombic,"{""system"": ""orthorhombic"", ""scale"": [0.8, 1.0, 1.2], ""optical"": {""transparent"": 1, ""refraction"": 1.5, ""birefringence"": 0.01}}"
Lanthanite-(Nd),Nd2(CO3)3·8H2O,"{""Nd"": 2.0, ""C"": 3.0, ""O"": 17.0, ""H"": 16.0}",612.64,#FFFFFF,orthorhombic,"{""system"": ""orthorhombic"", ""scale"": [0.8, 1.0, 1.2], ""optical"": {""transparent"": 1, ""refraction"": 1.5, ""birefringence"": 0.01}}"
Lapeyreite,Cu3O[AsO3(OH)]2·H2O,"{""Cu"": 3.0, ""O"": 10.0, ""As"": 2.0, ""H"": 4.0}",504.52,#FFFFFF,monoclinic,"{""system"": ""monoclinic"", ""scale"": [0.7, 1.0, 1.3], ""optical"": {""transparent"": 1, ""refraction"": 1.5, ""birefringence"": 0.01}}"
Laphamite,As2Se3,"{""As"": 2.0, ""Se"": 3.0}",386.72,#808080,monoclinic,"{""system"": ""monoclinic"", ""scale"": [0.7, 1.0, 1.3], ""optical"": {""transparent"": 0, ""refraction"": 0.0, ""birefringence"": 0.0}}"
Lapieite,CuNiSbS3,"{""Cu"": 1.0, ""Ni"": 1.0, ""Sb"": 1.0, ""S"": 3.0}",340.18,#A9A9A9,orthorhombic,"{""system"": ""orthorhombic"", ""scale"": [0.8, 1.0, 1.2], ""optical"": {""transparent"": 0, ""refraction"": 0.0, ""birefringence"": 0.0}}"
Laplandite-(Ce),Na4CeTiPSi7O22·5H2O,"{""Na"": 4.0, ""Ce"": 1.0, ""Ti"": 1.0, ""P"": 1.0, ""Si"": 7.0, ""O"": 27.0, ""H"": 10.0}",949.63,#FFFFFF,orthorhombic,"{""system"": ""orthorhombic"", ""scale"": [0.8, 1.0, 1.2], ""optical"": {""transparent"": 1, ""refraction"": 1.5, ""birefringence"": 0.01}}"
Laptevite-(Ce),NaFe2+(REE7Ca5Y3)(SiO4)4(Si3B2PO18)(BO3)F11,"{""Na"": 1.0, ""Fe"": 1.0, ""Ca"": 5.0, ""Y"": 3.0, ""Si"": 7.0, ""O"": 37.0, ""B"": 3.0, ""P"": 1.0, ""F"": 11.0}",1607.0,#556B2F,hexagonal,"{""system"": ""hexagonal"", ""scale"": [1.0, 1.0, 1.6], ""optical"": {""transparent"": 0, ""refraction"": 0.0, ""birefringence"": 0.0}}"
Larderellite,(NH4)B5O7(OH)2·H2O,"{""N"": 1.0, ""H"": 8.0, ""B"": 5.0, ""O"": 10.0}",236.12,#FFFFFF,monoclinic,"{""system"": ""monoclinic"", ""scale"": [0.7, 1.0, 1.3], ""optical"": {""transparent"": 1, ""refraction"": 1.5, ""birefringence"": 0.01}}"
Larisaite,Na(H3O)(UO2)3(Se4+O3)2O2·4H2O,"{""Na"": 1.0, ""H"": 11.0, ""O"": 19.0, ""U"": 3.0, ""Se"": 2.0}",1210.09,#FFFFFF,monoclinic,"{""system"": ""monoclinic"", ""scale"": [0.7, 1.0, 1.3], ""optical"": {""transparent"": 1, ""refraction"": 1.5, ""birefringence"": 0.01}}"
Larnite,Ca2(SiO4),"{""Ca"": 2.0, ""Si"": 1.0, ""O"": 4.0}",172.25,#FFFFFF,monoclinic,"{""system"": ""monoclinic"", ""scale"": [0.7, 1.0, 1.3], ""optical"": {""transparent"": 1, ""refraction"": 1.5, ""birefringence"": 0.01}}"
Lasalite,Na2Mg2V10O28·20H2O,"{""Na"": 2.0, ""Mg"": 2.0, ""V"": 10.0, ""O"": 48.0, ""H"": 40.0}",1412.32,#FFFFFF,monoclinic,"{""system"": ""monoclinic"", ""scale"": [0.7, 1.0, 1.3], ""optical"": {""transparent"": 1, ""refraction"": 1.5, ""birefringence"": 0.01}}"
Latrappite,Ca2NbFe3+O6,"{""Ca"": 2.0, ""Nb"": 1.0, ""Fe"": 1.0, ""O"": 6.0}",324.92,#556B2F,orthorhombic,"{""system"": ""orthorhombic"", ""scale"": [0.8, 1.0, 1.2], ""optical"": {""transparent"": 0, ""refraction"": 0.0, ""birefringence"": 0.0}}"
Laumontite,CaAl2Si4O12·4H2O,"{""Ca"": 1.0, ""Al"": 2.0, ""Si"": 4.0, ""O"": 16.0, ""H"": 8.0}",470.46,#FFFFFF,monoclinic,"{""system"": ""monoclinic"", ""scale"": [0.7, 1.0, 1.3], ""optical"": {""transparent"": 1, ""refraction"": 1.5, ""birefringence"": 0.01}}"
Lauraniite,Cu6Cd2(SO4)2(OH)12·5H2O,"{""Cu"": 6.0, ""Cd"": 2.0, ""S"": 2.0, ""O"": 25.0, ""H"": 22.0}",1092.42,#FFFFFF,monoclinic,"{""system"": ""monoclinic"", ""scale"": [0.7, 1.0, 1.3], ""optical"": {""transparent"": 1, ""refraction"": 1.5, ""birefringence"": 0.01}}"
Laurelite,Pb7F12Cl2,"{""Pb"": 7.0, ""F"": 12.0, ""Cl"": 2.0}",1749.3,#FFFFFF,hexagonal,"{""system"": ""hexagonal"", ""scale"": [1.0, 1.0, 1.6], ""optical"": {""transparent"": 1, ""refraction"": 1.5, ""birefringence"": 0.01}}"
Laurentianite,[NbO(H2O)]3(Si2O7)2[Na(H2O)2]3,"{""Nb"": 3.0, ""O"": 26.0, ""H"": 18.0, ""Si"": 4.0, ""Na"": 3.0}",894.2,#FFFFFF,hexagonal,"{""system"": ""hexagonal"", ""scale"": [1.0, 1.0, 1.6], ""optical"": {""transparent"": 1, ""refraction"": 1.5, ""birefringence"": 0.01}}"
Laurentthomasite,Mg2K(Be2Al)Si12O30,"{""Mg"": 2.0, ""K"": 1.0, ""Be"": 2.0, ""Al"": 1.0, ""Si"": 12.0, ""O"": 30.0}",949.8,#FFFFFF,hexagonal,"{""system"": ""hexagonal"", ""scale"": [1.0, 1.0, 1.6], ""optical"": {""transparent"": 1, ""refraction"": 1.5, ""birefringence"": 0.01}}"
Laurionite,PbCl(OH),"{""Pb"": 1.0, ""Cl"": 1.0, ""O"": 1.0, ""H"": 1.0}",259.66,#FFFFFF,orthorhombic,"{""system"": ""orthorhombic"", ""scale"": [0.8, 1.0, 1.2], ""optical"": {""transparent"": 1, ""refraction"": 1.5, ""birefringence"": 0.01}}"
Laurite,RuS2,"{""Ru"": 1.0, ""S"": 2.0}",165.19,#A9A9A9,cubic,"{""system"": ""cubic"", ""scale"": [1.0, 1.0, 1.0], ""optical"": {""transparent"": 0, ""refraction"": 0.0, ""birefringence"": 0.0}}"
Lausenite,Fe3+2(SO4)3·5H2O,"{""Fe"": 2.0, ""S"": 3.0, ""O"": 17.0, ""H"": 10.0}",489.96,#556B2F,monoclinic,"{""system"": ""monoclinic"", ""scale"": [0.7, 1.0, 1.3], ""optical"": {""transparent"": 0, ""refraction"": 0.0, ""birefringence"": 0.0}}"
Lautarite,Ca(IO3)2,"{""Ca"": 1.0, ""I"": 2.0, ""O"": 6.0}",389.88,#FFFFFF,monoclinic,"{""system"": ""monoclinic"", ""scale"": [0.7, 1.0, 1.3], ""optical"": {""transparent"": 1, ""refraction"": 1.5, ""birefringence"": 0.01}}"
Lautenthalite,PbCu4(SO4)2(OH)6·3H2O,"{""Pb"": 1.0, ""Cu"": 4.0, ""S"": 2.0, ""O"": 17.0, ""H"": 12.0}",809.62,#FFFFFF,monoclinic,"{""system"": ""monoclinic"", ""scale"": [0.7, 1.0, 1.3], ""optical"": {""transparent"": 1, ""refraction"": 1.5, ""birefringence"": 0.01}}"
Lautite,CuAsS,"{""Cu"": 1.0, ""As"": 1.0, ""S"": 1.0}",170.53,#FFD700,orthorhombic,"{""system"": ""orthorhombic"", ""scale"": [0.8, 1.0, 1.2], ""optical"": {""transparent"": 0, ""refraction"": 0.0, ""birefringence"": 0.0}}"
Lavendulan,NaCaCu5(AsO4)4Cl·5H2O,"{""Na"": 1.0, ""Ca"": 1.0, ""Cu"": 5.0, ""As"": 4.0, ""O"": 21.0, ""Cl"": 1.0, ""H"": 10.0}",1062.03,#FFFFFF,monoclinic,"{""system"": ""monoclinic"", ""scale"": [0.7, 1.0, 1.3], ""optical"": {""transparent"": 1, ""refraction"": 1.5, ""birefringence"": 0.01}}"
Lavinskyite,K(LiCu)Cu6(Si4O11)2(OH)4,"{""K"": 1.0, ""Li"": 1.0, ""Cu"": 7.0, ""Si"": 8.0, ""O"": 26.0, ""H"": 4.0}",1135.64,#FFFFFF,orthorhombic,"{""system"": ""orthorhombic"", ""scale"": [0.8, 1.0, 1.2], ""optical"": {""transparent"": 1, ""refraction"": 1.5, ""birefringence"": 0.01}}"
Lavrentievite,Hg3S2Cl2,"{""Hg"": 3.0, ""S"": 2.0, ""Cl"": 2.0}",736.79,#A9A9A9,triclinic,"{""system"": ""triclinic"", ""scale"": [0.7, 1.0, 1.3], ""optical"": {""transparent"": 0, ""refraction"": 0.0, ""birefringence"": 0.0}}"
Lawrencite,FeCl2,"{""Fe"": 1.0, ""Cl"": 2.0}",126.75,#8B4513,hexagonal,"{""system"": ""hexagonal"", ""scale"": [1.0, 1.0, 1.6], ""optical"": {""transparent"": 0, ""refraction"": 0.0, ""birefringence"": 0.0}}"
Lawsonite,CaAl2(Si2O7)(OH)2·H2O,"{""Ca"": 1.0, ""Al"": 2.0, ""Si"": 2.0, ""O"": 10.0, ""H"": 4.0}",314.25,#FFFFFF,monoclinic,"{""system"": ""monoclinic"", ""scale"": [0.7, 1.0, 1.3], ""optical"": {""transparent"": 1, ""refraction"": 1.5, ""birefringence"": 0.01}}"
Lazaraskeite,Cu(C2H3O3)2,"{""Cu"": 1.0, ""C"": 4.0, ""H"": 6.0, ""O"": 6.0}",213.64,#FFFFFF,monoclinic,"{""system"": ""monoclinic"", ""scale"": [0.7, 1.0, 1.3], ""optical"": {""transparent"": 1, ""refraction"": 1.5, ""birefringence"": 0.01}}"
Lazarenkoite,CaFe3+As3+3O7·3H2O,"{""Ca"": 1.0, ""Fe"": 1.0, ""As"": 3.0, ""O"": 10.0, ""H"": 6.0}",486.74,#556B2F,orthorhombic,"{""system"": ""orthorhombic"", ""scale"": [0.8, 1.0, 1.2], ""optical"": {""transparent"": 0, ""refraction"": 0.0, ""birefringence"": 0.0}}"
Lazaridisite,Cd3(SO4)3·8H2O,"{""Cd"": 3.0, ""S"": 3.0, ""O"": 20.0, ""H"": 16.0}",769.54,#FFFFFF,monoclinic,"{""system"": ""monoclinic"", ""scale"": [0.7, 1.0, 1.3], ""optical"": {""transparent"": 1, ""refraction"": 1.5, ""birefringence"": 0.01}}"
Lazulite,MgAl2(PO4)2(OH)2,"{""Mg"": 1.0, ""Al"": 2.0, ""P"": 2.0, ""O"": 10.0, ""H"": 2.0}",302.23,#FFFFFF,monoclinic,"{""system"": ""monoclinic"", ""scale"": [0.7, 1.0, 1.3], ""optical"": {""transparent"": 1, ""refraction"": 1.5, ""birefringence"": 0.01}}"
Lazurite,Na7Ca(Al6Si6O24)(SO4)(S3)1-·H2O,"{""Na"": 7.0, ""Ca"": 1.0, ""Al"": 6.0, ""Si"": 6.0, ""O"": 29.0, ""S"": 4.0, ""H"": 2.0}",1125.69,#FFFFFF,orthorhombic,"{""system"": ""orthorhombic"", ""scale"": [0.8, 1.0, 1.2], ""optical"": {""transparent"": 1, ""refraction"": 1.5, ""birefringence"": 0.01}}"
Lead,Pb,"{""Pb"": 1.0}",207.2,#FFFFFF,cubic,"{""system"": ""cubic"", ""scale"": [1.0, 1.0, 1.0], ""optical"": {""transparent"": 1, ""refraction"": 1.5, ""birefringence"": 0.0}}"
Leadamalgam,HgPb2,"{""Hg"": 1.0, ""Pb"": 2.0}",614.99,#FFFFFF,tetragonal,"{""system"": ""tetragonal"", ""scale"": [1.0, 1.0, 1.4], ""optical"": {""transparent"": 1, ""refraction"": 1.5, ""birefringence"": 0.01}}"
Leadhillite,Pb4(SO4)(CO3)2(OH)2,"{""Pb"": 4.0, ""S"": 1.0, ""O"": 12.0, ""C"": 2.0, ""H"": 2.0}",1078.9,#FFFFFF,monoclinic,"{""system"": ""monoclinic"", ""scale"": [0.7, 1.0, 1.3], ""optical"": {""transparent"": 1, ""refraction"": 1.5, ""birefringence"": 0.01}}"
Lebedevite,K4Na14Cu14O8(AsO4)8Cl6,"{""K"": 4.0, ""Na"": 14.0, ""Cu"": 14.0, ""O"": 40.0, ""As"": 8.0, ""Cl"": 6.0}",2820.02,#FFFFFF,tetragonal,"{""system"": ""tetragonal"", ""scale"": [1.0, 1.0, 1.4], ""optical"": {""transparent"": 1, ""refraction"": 1.5, ""birefringence"": 0.01}}"
Lechatelierite,SiO2,"{""Si"": 1.0, ""O"": 2.0}",60.09,#FFFFFF,,"{""system"": """", ""scale"": [1.0, 1.0, 1.0], ""optical"": {""transparent"": 1, ""refraction"": 1.5, ""birefringence"": 0.01}}"
Lechnerite,Ag10Cu4HgPb33Sb58S128,"{""Ag"": 10.0, ""Cu"": 4.0, ""Hg"": 1.0, ""Pb"": 33.0, ""Sb"": 58.0, ""S"": 128.0}",19536.85,#708090,triclinic,"{""system"": ""triclinic"", ""scale"": [0.7, 1.0, 1.3], ""optical"": {""transparent"": 0, ""refraction"": 0.0, ""birefringence"": 0.0}}"
Lecontite,(NH4)Na(SO4)·2H2O,"{""N"": 1.0, ""H"": 8.0, ""Na"": 1.0, ""S"": 1.0, ""O"": 6.0}",173.12,#FFFFFF,orthorhombic,"{""system"": ""orthorhombic"", ""scale"": [0.8, 1.0, 1.2], ""optical"": {""transparent"": 1, ""refraction"": 1.5, ""birefringence"": 0.01}}"
Lecoqite-(Y),Na3Y(CO3)3·6H2O,"{""Na"": 3.0, ""Y"": 1.0, ""C"": 3.0, ""O"": 15.0, ""H"": 12.0}",446.01,#FFFFFF,hexagonal,"{""system"": ""hexagonal"", ""scale"": [1.0, 1.0, 1.6], ""optical"": {""transparent"": 1, ""refraction"": 1.5, ""birefringence"": 0.01}}"
Lednevite,Cu[PO3(OH)]·H2O,"{""Cu"": 1.0, ""P"": 1.0, ""O"": 5.0, ""H"": 3.0}",177.54,#FFFFFF,monoclinic,"{""system"": ""monoclinic"", ""scale"": [0.7, 1.0, 1.3], ""optical"": {""transparent"": 1, ""refraction"": 1.5, ""birefringence"": 0.01}}"
Leesite,K(H2O)2[(UO2)4O2(OH)5]·3H2O,"{""K"": 1.0, ""H"": 15.0, ""O"": 20.0, ""U"": 4.0}",1326.34,#FFFFFF,orthorhombic,"{""system"": ""orthorhombic"", ""scale"": [0.8, 1.0, 1.2], ""optical"": {""transparent"": 1, ""refraction"": 1.5, ""birefringence"": 0.01}}"
Lefontite,Fe2Al2Be(PO4)2(OH)6,"{""Fe"": 2.0, ""Al"": 2.0, ""Be"": 1.0, ""P"": 2.0, ""O"": 14.0, ""H"": 6.0}",466.66,#556B2F,orthorhombic,"{""system"": ""orthorhombic"", ""scale"": [0.8, 1.0, 1.2], ""optical"": {""transparent"": 0, ""refraction"": 0.0, ""birefringence"": 0.0}}"
Lehmannite,Na18Cu12TiO8(AsO4)8FCl5,"{""Na"": 18.0, ""Cu"": 12.0, ""Ti"": 1.0, ""O"": 40.0, ""As"": 8.0, ""F"": 1.0, ""Cl"": 5.0}",2659.9,#FFFFFF,monoclinic,"{""system"": ""monoclinic"", ""scale"": [0.7, 1.0, 1.3], ""optical"": {""transparent"": 1, ""refraction"": 1.5, ""birefringence"": 0.01}}"
Leightonite,K2Ca2Cu(SO4)4·2H2O,"{""K"": 2.0, ""Ca"": 2.0, ""Cu"": 1.0, ""S"": 4.0, ""O"": 18.0, ""H"": 4.0}",642.18,#FFFFFF,monoclinic,"{""system"": ""monoclinic"", ""scale"": [0.7, 1.0, 1.3], ""optical"": {""transparent"": 1, ""refraction"": 1.5, ""birefringence"": 0.01}}"
Leisingite,Cu2MgTe6+O6·6H2O,"{""Cu"": 2.0, ""Mg"": 1.0, ""Te"": 1.0, ""O"": 12.0, ""H"": 12.0}",483.11,#FFFFFF,hexagonal,"{""system"": ""hexagonal"", ""scale"": [1.0, 1.0, 1.6], ""optical"": {""transparent"": 1, ""refraction"": 1.5, ""birefringence"": 0.01}}"
Lemanskiite,NaCaCu5(AsO4)4Cl·3H2O,"{""Na"": 1.0, ""Ca"": 1.0, ""Cu"": 5.0, ""As"": 4.0, ""O"": 19.0, ""Cl"": 1.0, ""H"": 6.0}",1026.0,#FFFFFF,monoclinic,"{""system"": ""monoclinic"", ""scale"": [0.7, 1.0, 1.3], ""optical"": {""transparent"": 1, ""refraction"": 1.5, ""birefringence"": 0.01}}"