name,formula,elements,density,color,crystal_system,dna
Kannanite,Ca4Al4(MgAl)(VO4)(SiO4)2(Si3O10)(OH)6,"{""Ca"": 4.0, ""Al"": 5.0, ""Mg"": 1.0, ""V"": 1.0, ""O"": 28.0, ""Si"": 5.0, ""H"": 6.0}",964.97,#FFFFFF,orthorhombic,"{""system"": ""orthorhombic"", ""scale"": [0.8, 1.0, 1.2], ""optical"": {""transparent"": 1, ""refraction"": 1.5, ""birefringence"": 0.01}}"
Kantorite,K2NaMg(SO4)2F,"{""K"": 2.0, ""Na"": 1.0, ""Mg"": 1.0, ""S"": 2.0, ""O"": 8.0, ""F"": 1.0}",336.62,#FFFFFF,orthorhombic,"{""system"": ""orthorhombic"", ""scale"": [0.8, 1.0, 1.2], ""optical"": {""transparent"": 1, ""refraction"": 1.5, ""birefringence"": 0.01}}"
Kaolinite,Al2Si2O5(OH)4,"{""Al"": 2.0, ""Si"": 2.0, ""O"": 9.0, ""H"": 4.0}",258.17,#FFFFFF,monoclinic,"{""system"": ""monoclinic"", ""scale"": [0.7, 1.0, 1.3], ""optical"": {""transparent"": 1, ""refraction"": 1.5, ""birefringence"": 0.01}}"
Kapitsaite-(Y),Ba4Y2Si8B4O28F,"{""Ba"": 4.0, ""Y"": 2.0, ""Si"": 8.0, ""B"": 4.0, ""O"": 28.0, ""F"": 1.0}",1462.1,#FFFFFF,triclinic,"{""system"": ""triclinic"", ""scale"": [0.7, 1.0, 1.3], ""optical"": {""transparent"": 1, ""refraction"": 1.5, ""birefringence"": 0.01}}"
Kapundaite,CaNaFe3+4(PO4)4(OH)3·5H2O,"{""Ca"": 1.0, ""Na"": 1.0, ""Fe"": 4.0, ""P"": 4.0, ""O"": 24.0, ""H"": 13.0}",807.45,#556B2F,triclinic,"{""system"": ""triclinic"", ""scale"": [0.7, 1.0, 1.3], ""optical"": {""transparent"": 0, ""refraction"": 0.0, ""birefringence"": 0.0}}"
Kapustinite,Na6ZrSi6O16(OH)2,"{""Na"": 6.0, ""Zr"": 1.0, ""Si"": 6.0, ""O"": 18.0, ""H"": 2.0}",687.72,#FFFFFF,monoclinic,"{""system"": ""monoclinic"", ""scale"": [0.7, 1.0, 1.3], ""optical"": {""transparent"": 1, ""refraction"": 1.5, ""birefringence"": 0.01}}"
Karasugite,SrCaAlF7,"{""Sr"": 1.0, ""Ca"": 1.0, ""Al"": 1.0, ""F"": 7.0}",287.68,#FFFFFF,monoclinic,"{""system"": ""monoclinic"", ""scale"": [0.7, 1.0, 1.3], ""optical"": {""transparent"": 1, ""refraction"": 1.5, ""birefringence"": 0.01}}"
Karchevskyite,Mg18Al9(OH)54Sr2(CO3)9(H2O)6(H3O)5,"{""Mg"": 18.0, ""Al"": 9.0, ""O"": 92.0, ""H"": 81.0, ""Sr"": 2.0, ""C"": 9.0}",2517.38,#FFFFFF,hexagonal,"{""system"": ""hexagonal"", ""scale"": [1.0, 1.0, 1.6], ""optical"": {""transparent"": 1, ""refraction"": 1.5, ""birefringence"": 0.01}}"
Karelianite,V2O3,"{""V"": 2.0, ""O"": 3.0}",149.88,#FFFFFF,hexagonal,"{""system"": ""hexagonal"", ""scale"": [1.0, 1.0, 1.6], ""optical"": {""transparent"": 1, ""refraction"": 1.5, ""birefringence"": 0.01}}"
Karenwebberite,NaFe2+(PO4),"{""Na"": 1.0, ""Fe"": 1.0, ""P"": 1.0, ""O"": 4.0}",173.81,#556B2F,orthorhombic,"{""system"": ""orthorhombic"", ""scale"": [0.8, 1.0, 1.2], ""optical"": {""transparent"": 0, ""refraction"": 0.0, ""birefringence"": 0.0}}"
Karibibite,Fe3+3(As3+O2)4(As3+2O5)(OH),"{""Fe"": 3.0, ""As"": 6.0, ""O"": 14.0, ""H"": 1.0}",842.08,#556B2F,orthorhombic,"{""system"": ""orthorhombic"", ""scale"": [0.8, 1.0, 1.2], ""optical"": {""transparent"": 0, ""refraction"": 0.0, ""birefringence"": 0.0}}"
Karlditmarite,Cu9O4(PO4)2(SO4)2,"{""Cu"": 9.0, ""O"": 20.0, ""P"": 2.0, ""S"": 2.0}",1018.01,#FFFFFF,triclinic,"{""system"": ""triclinic"", ""scale"": [0.7, 1.0, 1.3], ""optical"": {""transparent"": 1, ""refraction"": 1.5, ""birefringence"": 0.01}}"
Karlseifertite,Pb(Ga2Ge)(AsO4)2(OH)6,"{""Pb"": 1.0, ""Ga"": 2.0, ""Ge"": 1.0, ""As"": 2.0, ""O"": 14.0, ""H"": 6.0}",799.16,#FFFFFF,hexagonal,"{""system"": ""hexagonal"", ""scale"": [1.0, 1.0, 1.6], ""optical"": {""transparent"": 1, ""refraction"": 1.5, ""birefringence"": 0.01}}"
Karnasurtite-(Ce),CeTiAlSi2O7(OH)4·3H2O,"{""Ce"": 1.0, ""Ti"": 1.0, ""Al"": 1.0, ""Si"": 2.0, ""O"": 14.0, ""H"": 10.0}",505.23,#FFFFFF,,"{""system"": """", ""scale"": [1.0, 1.0, 1.0], ""optical"": {""transparent"": 1, ""refraction"": 1.5, ""birefringence"": 0.01}}"
Karpenkoite,Co3(V2O7)(OH)2·2H2O,"{""Co"": 3.0, ""V"": 2.0, ""O"": 11.0, ""H"": 6.0}",460.72,#FFFFFF,hexagonal,"{""system"": ""hexagonal"", ""scale"": [1.0, 1.0, 1.6], ""optical"": {""transparent"": 1, ""refraction"": 1.5, ""birefringence"": 0.01}}"
Karpovite,Tl2VO(SO4)2(H2O),"{""Tl"": 2.0, ""V"": 1.0, ""O"": 10.0, ""S"": 2.0, ""H"": 2.0}",685.84,#FFFFFF,monoclinic,"{""system"": ""monoclinic"", ""scale"": [0.7, 1.0, 1.3], ""optical"": {""transparent"": 1, ""refraction"": 1.5, ""birefringence"": 0.01}}"
Kasatkinite,Ba2Ca8B5Si8O32(OH)3·6H2O,"{""Ba"": 2.0, ""Ca"": 8.0, ""B"": 5.0, ""Si"": 8.0, ""O"": 41.0, ""H"": 15.0}",1545.19,#FFFFFF,monoclinic,"{""system"": ""monoclinic"", ""scale"": [0.7, 1.0, 1.3], ""optical"": {""transparent"": 1, ""refraction"": 1.5, ""birefringence"": 0.01}}"
Kashinite,Ir2S3,"{""Ir"": 2.0, ""S"": 3.0}",480.62,#A9A9A9,orthorhombic,"{""system"": ""orthorhombic"", ""scale"": [0.8, 1.0, 1.2], ""optical"": {""transparent"": 0, ""refraction"": 0.0, ""birefringence"": 0.0}}"
Kasolite,Pb(UO2)(SiO4)·H2O,"{""Pb"": 1.0, ""U"": 1.0, ""O"": 7.0, ""Si"": 1.0, ""H"": 2.0}",587.34,#FFFFFF,monoclinic,"{""system"": ""monoclinic"", ""scale"": [0.7, 1.0, 1.3], ""optical"": {""transparent"": 1, ""refraction"": 1.5, ""birefringence"": 0.01}}"
Kassite,CaTi2O4(OH)2,"{""Ca"": 1.0, ""Ti"": 2.0, ""O"": 6.0, ""H"": 2.0}",233.84,#FFFFFF,monoclinic,"{""system"": ""monoclinic"", ""scale"": [0.7, 1.0, 1.3], ""optical"": {""transparent"": 1, ""refraction"": 1.5, ""birefringence"": 0.01}}"
Katanite,Ba3NbFe3Si2O14,"{""Ba"": 3.0, ""Nb"": 1.0, ""Fe"": 3.0, ""Si"": 2.0, ""O"": 14.0}",952.63,#556B2F,hexagonal,"{""system"": ""hexagonal"", ""scale"": [1.0, 1.0, 1.6], ""optical"": {""transparent"": 0, ""refraction"": 0.0, ""birefringence"": 0.0}}"
Katayamalite,KLi3Ca7Ti2(SiO3)12(OH)2,"{""K"": 1.0, ""Li"": 3.0, ""Ca"": 7.0, ""Ti"": 2.0, ""Si"": 12.0, ""O"": 38.0, ""H"": 2.0}",1383.32,#FFFFFF,triclinic,"{""system"": ""triclinic"", ""scale"": [0.7, 1.0, 1.3], ""optical"": {""transparent"": 1, ""refraction"": 1.5, ""birefringence"": 0.01}}"
Katiarsite,KTiO(AsO4),"{""K"": 1.0, ""Ti"": 1.0, ""O"": 5.0, ""As"": 1.0}",241.89,#FFFFFF,orthorhombic,"{""system"": ""orthorhombic"", ""scale"": [0.8, 1.0, 1.2], ""optical"": {""transparent"": 1, ""refraction"": 1.5, ""birefringence"": 0.01}}"
Katoite,Ca3Al2(OH)12,"{""Ca"": 3.0, ""Al"": 2.0, ""O"": 12.0, ""H"": 12.0}",378.3,#FFFFFF,cubic,"{""system"": ""cubic"", ""scale"": [1.0, 1.0, 1.0], ""optical"": {""transparent"": 1, ""refraction"": 1.5, ""birefringence"": 0.0}}"
Katophorite,Na(NaCa)(Mg4Al)(Si7Al)O22(OH)2,"{""Na"": 2.0, ""Ca"": 1.0, ""Mg"": 4.0, ""Al"": 2.0, ""Si"": 7.0, ""O"": 24.0, ""H"": 2.0}",819.91,#FFFFFF,monoclinic,"{""system"": ""monoclinic"", ""scale"": [0.7, 1.0, 1.3], ""optical"": {""transparent"": 1, ""refraction"": 1.5, ""birefringence"": 0.01}}"
Kawazulite,Bi2Te2Se,"{""Bi"": 2.0, ""Te"": 2.0, ""Se"": 1.0}",752.12,#D2B48C,hexagonal,"{""system"": ""hexagonal"", ""scale"": [1.0, 1.0, 1.6], ""optical"": {""transparent"": 0, ""refraction"": 0.0, ""birefringence"": 0.0}}"
Kazakhstanite,Fe3+5V4+3V5+12O39(OH)9·9H2O,"{""Fe"": 5.0, ""V"": 15.0, ""O"": 57.0, ""H"": 27.0}",1982.57,#556B2F,monoclinic,"{""system"": ""monoclinic"", ""scale"": [0.7, 1.0, 1.3], ""optical"": {""transparent"": 0, ""refraction"": 0.0, ""birefringence"": 0.0}}"
Kaznakhtite,Ni6Co3+2(OH)16(CO3)·4H2O,"{""Ni"": 6.0, ""Co"": 2.0, ""O"": 23.0, ""H"": 24.0, ""C"": 1.0}",874.2,#FFFFFF,hexagonal,"{""system"": ""hexagonal"", ""scale"": [1.0, 1.0, 1.6], ""optical"": {""transparent"": 1, ""refraction"": 1.5, ""birefringence"": 0.01}}"
Kegelite,Pb4Al2Si4O10(SO4)(CO3)2(OH)4,"{""Pb"": 4.0, ""Al"": 2.0, ""Si"": 4.0, ""O"": 24.0, ""S"": 1.0, ""C"": 2.0, ""H"": 4.0}",1439.23,#FFFFFF,monoclinic,"{""system"": ""monoclinic"", ""scale"": [0.7, 1.0, 1.3], ""optical"": {""transparent"": 1, ""refraction"": 1.5, ""birefringence"": 0.01}}"
Kegginite,Pb3Ca3[AsV12O40(VO)]·20H2O,"{""Pb"": 3.0, ""Ca"": 3.0, ""As"": 1.0, ""V"": 13.0, ""O"": 61.0, ""H"": 40.0}",2495.3,#FFFFFF,hexagonal,"{""system"": ""hexagonal"", ""scale"": [1.0, 1.0, 1.6], ""optical"": {""transparent"": 1, ""refraction"": 1.5, ""birefringence"": 0.01}}"
Keilite,FeS,"{""Fe"": 1.0, ""S"": 1.0}",87.91,#DAA520,cubic,"{""system"": ""cubic"", ""scale"": [1.0, 1.0, 1.0], ""optical"": {""transparent"": 0, ""refraction"": 0.0, ""birefringence"": 0.0}}"
Keithconnite,Pd20Te7,"{""Pd"": 20.0, ""Te"": 7.0}",3021.6,#FFFFFF,hexagonal,"{""system"": ""hexagonal"", ""scale"": [1.0, 1.0, 1.6], ""optical"": {""transparent"": 1, ""refraction"": 1.5, ""birefringence"": 0.01}}"
Keiviite-(Y),Y2Si2O7,"{""Y"": 2.0, ""Si"": 2.0, ""O"": 7.0}",346.0,#FFFFFF,monoclinic,"{""system"": ""monoclinic"", ""scale"": [0.7, 1.0, 1.3], ""optical"": {""transparent"": 1, ""refraction"": 1.5, ""birefringence"": 0.01}}"
Keiviite-(Yb),Yb2Si2O7,"{""Yb"": 2.0, ""Si"": 2.0, ""O"": 7.0}",514.28,#FFFFFF,monoclinic,"{""system"": ""monoclinic"", ""scale"": [0.7, 1.0, 1.3], ""optical"": {""transparent"": 1, ""refraction"": 1.5, ""birefringence"": 0.01}}"
Keldyshite,Na2ZrSi2O7,"{""Na"": 2.0, ""Zr"": 1.0, ""Si"": 2.0, ""O"": 7.0}",305.38,#FFFFFF,triclinic,"{""system"": ""triclinic"", ""scale"": [0.7, 1.0, 1.3], ""optical"": {""transparent"": 1, ""refraction"": 1.5, ""birefringence"": 0.01}}"
Kelyanite,Hg12SbO6BrCl2,"{""Hg"": 12.0, ""Sb"": 1.0, ""O"": 6.0, ""Br"": 1.0, ""Cl"": 2.0}",2775.64,#FFFFFF,hexagonal,"{""system"": ""hexagonal"", ""scale"": [1.0, 1.0, 1.6], ""optical"": {""transparent"": 1, ""refraction"": 1.5, ""birefringence"": 0.01}}"
Kemmlitzite,SrAl3(AsO4)(SO4)(OH)6,"{""Sr"": 1.0, ""Al"": 3.0, ""As"": 1.0, ""O"": 14.0, ""S"": 1.0, ""H"": 6.0}",505.59,#FFFFFF,hexagonal,"{""system"": ""hexagonal"", ""scale"": [1.0, 1.0, 1.6], ""optical"": {""transparent"": 1, ""refraction"": 1.5, ""birefringence"": 0.01}}"
Kenhsuite,Hg3S2Cl2,"{""Hg"": 3.0, ""S"": 2.0, ""Cl"": 2.0}",736.79,#A9A9A9,orthorhombic,"{""system"": ""orthorhombic"", ""scale"": [0.8, 1.0, 1.2], ""optical"": {""transparent"": 0, ""refraction"": 0.0, ""birefringence"": 0.0}}"
Kennygayite,[Pb4O2(OH)2](SO4),"{""Pb"": 4.0, ""O"": 8.0, ""H"": 2.0, ""S"": 1.0}",990.88,#FFFFFF,triclinic,"{""system"": ""triclinic"", ""scale"": [0.7, 1.0, 1.3], ""optical"": {""transparent"": 1, ""refraction"": 1.5, ""birefringence"": 0.01}}"
Kenotobermorite,Ca4Si6O15(OH)2(H2O)2·3H2O,"{""Ca"": 4.0, ""Si"": 6.0, ""O"": 22.0, ""H"": 12.0}",692.96,#FFFFFF,monoclinic,"{""system"": ""monoclinic"", ""scale"": [0.7, 1.0, 1.3], ""optical"": {""transparent"": 1, ""refraction"": 1.5, ""birefringence"": 0.01}}"
Kenyaite,Na2Si22O41(OH)8·6H2O,"{""Na"": 2.0, ""Si"": 22.0, ""O"": 55.0, ""H"": 20.0}",1564.12,#FFFFFF,tetragonal,"{""system"": ""tetragonal"", ""scale"": [1.0, 1.0, 1.4], ""optical"": {""transparent"": 1, ""refraction"": 1.5, ""birefringence"": 0.01}}"
Kerimasite,Ca3Zr2(SiFe3+2)O12,"{""Ca"": 3.0, ""Zr"": 2.0, ""Si"": 1.0, ""Fe"": 2.0, ""O"": 12.0}",634.47,#556B2F,cubic,"{""system"": ""cubic"", ""scale"": [1.0, 1.0, 1.0], ""optical"": {""transparent"": 0, ""refraction"": 0.0, ""birefringence"": 0.0}}"
Kermesite,Sb2OS2,"{""Sb"": 2.0, ""O"": 1.0, ""S"": 2.0}",323.64,#FFFF00,triclinic,"{""system"": ""triclinic"", ""scale"": [0.7, 1.0, 1.3], ""optical"": {""transparent"": 0, ""refraction"": 0.0, ""birefringence"": 0.0}}"
Kernite,Na2B4O6(OH)2·3H2O,"{""Na"": 2.0, ""B"": 4.0, ""O"": 11.0, ""H"": 8.0}",273.28,#FFFFFF,monoclinic,"{""system"": ""monoclinic"", ""scale"": [0.7, 1.0, 1.3], ""optical"": {""transparent"": 1, ""refraction"": 1.5, ""birefringence"": 0.01}}"
Kernowite,Cu2Fe3+(AsO4)(OH)4·4H2O,"{""Cu"": 2.0, ""Fe"": 1.0, ""As"": 1.0, ""O"": 12.0, ""H"": 12.0}",461.97,#556B2F,monoclinic,"{""system"": ""monoclinic"", ""scale"": [0.7, 1.0, 1.3], ""optical"": {""transparent"": 0, ""refraction"": 0.0, ""birefringence"": 0.0}}"
Kettnerite,CaBiO(CO3)F,"{""Ca"": 1.0, ""Bi"": 1.0, ""O"": 4.0, ""C"": 1.0, ""F"": 1.0}",344.07,#FFFFFF,orthorhombic,"{""system"": ""orthorhombic"", ""scale"": [0.8, 1.0, 1.2], ""optical"": {""transparent"": 1, ""refraction"": 1.5, ""birefringence"": 0.01}}"
Keutschite,Cu2AgAsS4,"{""Cu"": 2.0, ""Ag"": 1.0, ""As"": 1.0, ""S"": 4.0}",438.13,#FFD700,tetragonal,"{""system"": ""tetragonal"", ""scale"": [1.0, 1.0, 1.4], ""optical"": {""transparent"": 0, ""refraction"": 0.0, ""birefringence"": 0.0}}"
Khademite,Al(SO4)F·5H2O,"{""Al"": 1.0, ""S"": 1.0, ""O"": 9.0, ""F"": 1.0, ""H"": 10.0}",232.12,#FFFFFF,orthorhombic,"{""system"": ""orthorhombic"", ""scale"": [0.8, 1.0, 1.2], ""optical"": {""transparent"": 1, ""refraction"": 1.5, ""birefringence"": 0.01}}"
Khaidarkanite,Cu4Al3(OH)14F3·2H2O,"{""Cu"": 4.0, ""Al"": 3.0, ""O"": 16.0, ""H"": 18.0, ""F"": 3.0}",666.28,#FFFFFF,monoclinic,"{""system"": ""monoclinic"", ""scale"": [0.7, 1.0, 1.3], ""optical"": {""transparent"": 1, ""refraction"": 1.5, ""birefringence"": 0.01}}"
Khamrabaevite,TiC,"{""Ti"": 1.0, ""C"": 1.0}",59.88,#FFFFFF,cubic,"{""system"": ""cubic"", ""scale"": [1.0, 1.0, 1.0], ""optical"": {""transparent"": 1, ""refraction"": 1.5, ""birefringence"": 0.0}}"
Khatyrkite,CuAl2,"{""Cu"": 1.0, ""Al"": 2.0}",117.51,#00BFFF,tetragonal,"{""system"": ""tetragonal"", ""scale"": [1.0, 1.0, 1.4], ""optical"": {""transparent"": 0, ""refraction"": 0.0, ""birefringence"": 0.0}}"
Khesinite,Ca4(Mg2Fe3+10)O4(Fe3+10Si2)O36,"{""Ca"": 4.0, ""Mg"": 2.0, ""Fe"": 20.0, ""O"": 40.0, ""Si"": 2.0}",2022.12,#556B2F,triclinic,"{""system"": ""triclinic"", ""scale"": [0.7, 1.0, 1.3], ""optical"": {""transparent"": 0, ""refraction"": 0.0, ""birefringence"": 0.0}}"
Khibinskite,K2ZrSi2O7,"{""K"": 2.0, ""Zr"": 1.0, ""Si"": 2.0, ""O"": 7.0}",337.6,#FFFFFF,monoclinic,"{""system"": ""monoclinic"", ""scale"": [0.7, 1.0, 1.3], ""optical"": {""transparent"": 1, ""refraction"": 1.5, ""birefringence"": 0.01}}"
Khinite,Cu2+3PbTe6+O6(OH)2,"{""Cu"": 3.0, ""Pb"": 1.0, ""Te"": 1.0, ""O"": 8.0, ""H"": 2.0}",655.47,#FFFFFF,orthorhombic,"{""system"": ""orthorhombic"", ""scale"": [0.8, 1.0, 1.2], ""optical"": {""transparent"": 1, ""refraction"": 1.5, ""birefringence"": 0.01}}"
Khmaralite,Mg4(Mg3Al9)O4[Si5Be2Al5O36],"{""Mg"": 7.0, ""Al"": 14.0, ""O"": 40.0, ""Si"": 5.0, ""Be"": 2.0}",1346.36,#FFFFFF,monoclinic,"{""system"": ""monoclinic"", ""scale"": [0.7, 1.0, 1.3], ""optical"": {""transparent"": 1, ""refraction"": 1.5, ""birefringence"": 0.01}}"
Khrenovite,Na3Fe3+2(AsO4)3,"{""Na"": 3.0, ""Fe"": 2.0, ""As"": 3.0, ""O"": 12.0}",597.43,#556B2F,monoclinic,"{""system"": ""monoclinic"", ""scale"": [0.7, 1.0, 1.3], ""optical"": {""transparent"": 0, ""refraction"": 0.0, ""birefringence"": 0.0}}"
Khvorovite,Pb4Ca2[Si8B2(SiB)O28]F,"{""Pb"": 4.0, ""Ca"": 2.0, ""Si"": 9.0, ""B"": 3.0, ""O"": 28.0, ""F"": 1.0}",1661.2,#FFFFFF,triclinic,"{""system"": ""triclinic"", ""scale"": [0.7, 1.0, 1.3], ""optical"": {""transparent"": 1, ""refraction"": 1.5, ""birefringence"": 0.01}}"
Kieftite,CoSb3,"{""Co"": 1.0, ""Sb"": 3.0}",424.21,#4169E1,cubic,"{""system"": ""cubic"", ""scale"": [1.0, 1.0, 1.0], ""optical"": {""transparent"": 0, ""refraction"": 0.0, ""birefringence"": 0.0}}"
Kieserite,Mg(SO4)·H2O,"{""Mg"": 1.0, ""S"": 1.0, ""O"": 5.0, ""H"": 2.0}",138.39,#FFFFFF,monoclinic,"{""system"": ""monoclinic"", ""scale"": [0.7, 1.0, 1.3], ""optical"": {""transparent"": 1, ""refraction"": 1.5, ""birefringence"": 0.01}}"
Kihlmanite-(Ce),Ce2TiO2(SiO4)(HCO3)2(H2O),"{""Ce"": 2.0, ""Ti"": 1.0, ""O"": 13.0, ""Si"": 1.0, ""H"": 4.0, ""C"": 2.0}",592.25,#FFFFFF,triclinic,"{""system"": ""triclinic"", ""scale"": [0.7, 1.0, 1.3], ""optical"": {""transparent"": 1, ""refraction"": 1.5, ""birefringence"": 0.01}}"
Kilchoanite,Ca6(SiO4)(Si3O10),"{""Ca"": 6.0, ""Si"": 4.0, ""O"": 14.0}",576.84,#FFFFFF,orthorhombic,"{""system"": ""orthorhombic"", ""scale"": [0.8, 1.0, 1.2], ""optical"": {""transparent"": 1, ""refraction"": 1.5, ""birefringence"": 0.01}}"
Kimuraite-(Y),CaY2(CO3)4·6H2O,"{""Ca"": 1.0, ""Y"": 2.0, ""C"": 4.0, ""O"": 18.0, ""H"": 12.0}",566.04,#FFFFFF,orthorhombic,"{""system"": ""orthorhombic"", ""scale"": [0.8, 1.0, 1.2], ""optical"": {""transparent"": 1, ""refraction"": 1.5, ""birefringence"": 0.01}}"
Kimzeyite,Ca3Zr2(SiAl2)O12,"{""Ca"": 3.0, ""Zr"": 2.0, ""Si"": 1.0, ""Al"": 2.0, ""O"": 12.0}",576.73,#FFFFFF,cubic,"{""system"": ""cubic"", ""scale"": [1.0, 1.0, 1.0], ""optical"": {""transparent"": 1, ""refraction"": 1.5, ""birefringence"": 0.0}}"
Kingite,Al3(PO4)2F2(OH)·7H2O,"{""Al"": 3.0, ""P"": 2.0, ""O"": 16.0, ""F"": 2.0, ""H"": 15.0}",452.0,#FFFFFF,triclinic,"{""system"": ""triclinic"", ""scale"": [0.7, 1.0, 1.3], ""optical"": {""transparent"": 1, ""refraction"": 1.5, ""birefringence"": 0.01}}"
Kingsgateite,ZrMo6+2O7(OH)2·2H2O,"{""Zr"": 1.0, ""Mo"": 2.0, ""O"": 11.0, ""H"": 6.0}",465.17,#FFFFFF,tetragonal,"{""system"": ""tetragonal"", ""scale"": [1.0, 1.0, 1.4], ""optical"": {""transparent"": 1, ""refraction"": 1.5, ""birefringence"": 0.01}}"
Kingstonite,Rh3S4,"{""Rh"": 3.0, ""S"": 4.0}",436.97,#A9A9A9,monoclinic,"{""system"": ""monoclinic"", ""scale"": [0.7, 1.0, 1.3], ""optical"": {""transparent"": 0, ""refraction"": 0.0, ""birefringence"": 0.0}}"
Kinoite,Ca2Cu2Si3O10·2H2O,"{""Ca"": 2.0, ""Cu"": 2.0, ""Si"": 3.0, ""O"": 12.0, ""H"": 4.0}",487.56,#FFFFFF,monoclinic,"{""system"": ""monoclinic"", ""scale"": [0.7, 1.0, 1.3], ""optical"": {""transparent"": 1, ""refraction"": 1.5, ""birefringence"": 0.01}}"
Kinoshitalite,BaMg3(Si2Al2O10)(OH)2,"{""Ba"": 1.0, ""Mg"": 3.0, ""Si"": 2.0, ""Al"": 2.0, ""O"": 12.0, ""H"": 2.0}",514.42,#FFFFFF,monoclinic,"{""system"": ""monoclinic"", ""scale"": [0.7, 1.0, 1.3], ""optical"": {""transparent"": 1, ""refraction"": 1.5, ""birefringence"": 0.01}}"
Kintoreite,PbFe3+3(PO4)(PO3OH)(OH)6,"{""Pb"": 1.0, ""Fe"": 3.0, ""P"": 2.0, ""O"": 14.0, ""H"": 7.0}",667.75,#556B2F,hexagonal,"{""system"": ""hexagonal"", ""scale"": [1.0, 1.0, 1.6], ""optical"": {""transparent"": 0, ""refraction"": 0.0, ""birefringence"": 0.0}}"
Kipushite,Cu6(PO4)2(OH)6·H2O,"{""Cu"": 6.0, ""P"": 2.0, ""O"": 15.0, ""H"": 8.0}",691.3,#FFFFFF,monoclinic,"{""system"": ""monoclinic"", ""scale"": [0.7, 1.0, 1.3], ""optical"": {""transparent"": 1, ""refraction"": 1.5, ""birefringence"": 0.01}}"
Kirchhoffite,CsBSi2O6,"{""Cs"": 1.0, ""B"": 1.0, ""Si"": 2.0, ""O"": 6.0}",295.9,#FFFFFF,tetragonal,"{""system"": ""tetragonal"", ""scale"": [1.0, 1.0, 1.4], ""optical"": {""transparent"": 1, ""refraction"": 1.5, ""birefringence"": 0.01}}"
Kirkiite,Pb10Bi3As3S19,"{""Pb"": 10.0, ""Bi"": 3.0, ""As"": 3.0, ""S"": 19.0}",3532.84,#708090,monoclinic,"{""system"": ""monoclinic"", ""scale"": [0.7, 1.0, 1.3], ""optical"": {""transparent"": 0, ""refraction"": 0.0, ""birefringence"": 0.0}}"
Kirschsteinite,CaFe2+(SiO4),"{""Ca"": 1.0, ""Fe"": 1.0, ""Si"": 1.0, ""O"": 4.0}",188.02,#556B2F,orthorhombic,"{""system"": ""orthorhombic"", ""scale"": [0.8, 1.0, 1.2], ""optical"": {""transparent"": 0, ""refraction"": 0.0, ""birefringence"": 0.0}}"
Kishonite,VH2,"{""V"": 1.0, ""H"": 2.0}",52.96,#FFFFFF,cubic,"{""system"": ""cubic"", ""scale"": [1.0, 1.0, 1.0], ""optical"": {""transparent"": 1, ""refraction"": 1.5, ""birefringence"": 0.0}}"
Kitagohaite,Pt7Cu,"{""Pt"": 7.0, ""Cu"": 1.0}",1429.11,#00BFFF,cubic,"{""system"": ""cubic"", ""scale"": [1.0, 1.0, 1.0], ""optical"": {""transparent"": 0, ""refraction"": 0.0, ""birefringence"": 0.0}}"
Kitkaite,NiTeSe,"{""Ni"": 1.0, ""Te"": 1.0, ""Se"": 1.0}",265.25,#7FFF00,hexagonal,"{""system"": ""hexagonal"", ""scale"": [1.0, 1.0, 1.6], ""optical"": {""transparent"": 0, ""refraction"": 0.0, ""birefringence"": 0.0}}"
Kladnoite,C6H4(CO)2NH,"{""C"": 8.0, ""H"": 5.0, ""O"": 2.0, ""N"": 1.0}",147.13,#FFFFFF,monoclinic,"{""system"": ""monoclinic"", ""scale"": [0.7, 1.0, 1.3], ""optical"": {""transparent"": 1, ""refraction"": 1.5, ""birefringence"": 0.01}}"
Klaprothite,Na6(UO2)(SO4)4(H2O)4,"{""Na"": 6.0, ""U"": 1.0, ""O"": 22.0, ""S"": 4.0, ""H"": 8.0}",864.27,#FFFFFF,monoclinic,"{""system"": ""monoclinic"", ""scale"": [0.7, 1.0, 1.3], ""optical"": {""transparent"": 1, ""refraction"": 1.5, ""birefringence"": 0.01}}"
Klebelsbergite,Sb3+4O4(SO4)(OH)2,"{""Sb"": 4.0, ""O"": 10.0, ""S"": 1.0, ""H"": 2.0}",681.12,#FFFFFF,orthorhombic,"{""system"": ""orthorhombic"", ""scale"": [0.8, 1.0, 1.2], ""optical"": {""transparent"": 1, ""refraction"": 1.5, ""birefringence"": 0.01}}"