name,formula,elements,density,color,crystal,pm_ids,gacha_weight
Kosnarite,KZr2(PO4)3,"{""K"": 1.0, ""Zr"": 2.0, ""P"": 3.0, ""O"": 12.0}",506.456,#FFFFFF,hexagonal,{22},247.0
Kostovite,AuCuTe4,"{""Au"": 1.0, ""Cu"": 1.0, ""Te"": 4.0}",770.916,#00BFFF,unknown,{33},797.0
Kostylevite,K2ZrSi3O9·H2O,"{""K"": 2.0, ""Zr"": 1.0, ""Si"": 3.0, ""O"": 10.0, ""H"": 2.0}",415.681,#FFFFFF,monoclinic,{35},726.0
Kotoite,Mg3(BO3)2,"{""Mg"": 3.0, ""B"": 2.0, ""O"": 6.0}",190.529,#FFFFFF,orthorhombic,{23},398.0
Kottenheimite,Ca3Si(SO4)2(OH)6·12H2O,"{""Ca"": 3.0, ""Si"": 1.0, ""S"": 2.0, ""O"": 26.0, ""H"": 30.0}",658.653,#FFFFFF,hexagonal,{47},1998.0
Koutekite,Cu5As2,"{""Cu"": 5.0, ""As"": 2.0}",467.574,#00BFFF,orthorhombic,{33},797.0
Kovdorskite,Mg2(PO4)(OH)·3H2O,"{""Mg"": 2.0, ""P"": 1.0, ""O"": 8.0, ""H"": 7.0}",214.632,#FFFFFF,monoclinic,"{35,45}",1150.0
Kozoite-(La),La(CO3)(OH),"{""La"": 1.0, ""C"": 1.0, ""O"": 4.0, ""H"": 1.0}",215.925,#FFFFFF,orthorhombic,"{8,23}",491.0
Kozoite-(Nd),Nd(CO3)(OH),"{""Nd"": 1.0, ""C"": 1.0, ""O"": 4.0, ""H"": 1.0}",221.255,#FFFFFF,orthorhombic,"{8,23}",491.0
Kozyrevskite,Cu4O(AsO4)2,"{""Cu"": 4.0, ""O"": 9.0, ""As"": 2.0}",548.019,#00BFFF,orthorhombic,{45},424.0
Kralikite,BaCl2·2H2O,"{""Ba"": 1.0, ""Cl"": 2.0, ""H"": 4.0, ""O"": 2.0}",244.26,#FFFFFF,monoclinic,{},1.0
Krasheninnikovite,KNa2CaMg(SO4)3F,"{""K"": 1.0, ""Na"": 2.0, ""Ca"": 1.0, ""Mg"": 1.0, ""S"": 3.0, ""O"": 12.0, ""F"": 1.0}",456.627,#FFFFFF,hexagonal,{45},424.0
Krasnoshteinite,Al8[B2O4(OH)2](OH)16Cl4·7H2O,"{""Al"": 8.0, ""B"": 2.0, ""O"": 29.0, ""H"": 32.0, ""Cl"": 4.0}",875.503,#FFFFFF,monoclinic,"{23,25}",608.0
Kratochvilite,C13H10,"{""C"": 13.0, ""H"": 10.0}",166.223,#FFFFFF,orthorhombic,"{50,54}",507.0
Krausite,KFe3+(SO4)2·H2O,"{""K"": 1.0, ""Fe"": 1.0, ""S"": 2.0, ""O"": 9.0, ""H"": 2.0}",305.07,#556B2F,monoclinic,"{45,47,55}",2686.0
Krauskopfite,BaSi2O5·3H2O,"{""Ba"": 1.0, ""Si"": 2.0, ""O"": 8.0, ""H"": 6.0}",327.54,#FFFFFF,monoclinic,"{32,40}",731.0
Kravtsovite,PdAg2S,"{""Pd"": 1.0, ""Ag"": 2.0, ""S"": 1.0}",354.22,#A9A9A9,orthorhombic,{33},797.0
Kreiterite,CsLi2Fe3+Si4O10F2,"{""Cs"": 1.0, ""Li"": 2.0, ""Fe"": 1.0, ""Si"": 4.0, ""O"": 10.0, ""F"": 2.0}",512.961,#556B2F,monoclinic,{34},564.0
Kremersite,(NH4)2Fe3+Cl5·H2O,"{""N"": 2.0, ""H"": 10.0, ""Fe"": 1.0, ""Cl"": 5.0, ""O"": 1.0}",287.188,#556B2F,orthorhombic,"{45,50,54}",931.0
Krennerite,Au3AgTe8,"{""Au"": 3.0, ""Ag"": 1.0, ""Te"": 8.0}",1719.58,#FFD700,orthorhombic,{33},797.0
Kribergite,Al5(PO4)3(SO4)(OH)4·4H2O,"{""Al"": 5.0, ""P"": 3.0, ""O"": 24.0, ""S"": 1.0, ""H"": 12.0}",655.964,#FFFFFF,unknown,{47},1998.0
Krieselite,Al2(GeO4)F2,"{""Al"": 2.0, ""Ge"": 1.0, ""O"": 4.0, ""F"": 2.0}",228.586,#FFFFFF,orthorhombic,{33},797.0
Krinovite,Na4[Mg8Cr3+4]O4[Si12O36],"{""Na"": 4.0, ""Mg"": 8.0, ""Cr"": 4.0, ""O"": 40.0, ""Si"": 12.0}",1471.364,#FFFFFF,triclinic,{5},94.0
Kristjanite,KNa2H(SO4)2,"{""K"": 1.0, ""Na"": 2.0, ""H"": 1.0, ""S"": 2.0, ""O"": 8.0}",278.198,#FFFFFF,monoclinic,{},1.0
Krivovichevite,Pb3Al(OH)6(SO4)(OH),"{""Pb"": 3.0, ""Al"": 1.0, ""O"": 11.0, ""H"": 7.0, ""S"": 1.0}",863.687,#FFFFFF,hexagonal,"{35,47}",2724.0
Krohnkite,Na2Cu(SO4)2·2H2O,"{""Na"": 2.0, ""Cu"": 1.0, ""S"": 2.0, ""O"": 10.0, ""H"": 4.0}",337.668,#FFFFFF,monoclinic,"{45,47}",2422.0
Krotite,CaAl2O4,"{""Ca"": 1.0, ""Al"": 2.0, ""O"": 4.0}",158.038,#FFFFFF,monoclinic,"{3,7}",171.0
Kruijenite,Ca4Al4(SO4)F2(OH)16·2H2O,"{""Ca"": 4.0, ""Al"": 4.0, ""S"": 1.0, ""O"": 22.0, ""F"": 2.0, ""H"": 20.0}",710.434,#FFFFFF,tetragonal,{47},1998.0
Krupickaite,Cu6[AsO3(OH)]6·8H2O,"{""Cu"": 6.0, ""As"": 6.0, ""O"": 32.0, ""H"": 22.0}",1364.952,#FFFFFF,monoclinic,{47},1998.0
Krupkaite,PbCuBi3S6,"{""Pb"": 1.0, ""Cu"": 1.0, ""Bi"": 3.0, ""S"": 6.0}",1090.046,#708090,orthorhombic,{33},797.0
Krutaite,CuSe2,"{""Cu"": 1.0, ""Se"": 2.0}",221.488,#00BFFF,cubic,{33},797.0
Krutovite,NiAs2,"{""Ni"": 1.0, ""As"": 2.0}",208.537,#7FFF00,cubic,{33},797.0
Kudryavtsevaite,Na3MgFe3+Ti4O12,"{""Na"": 3.0, ""Mg"": 1.0, ""Fe"": 1.0, ""Ti"": 4.0, ""O"": 12.0}",532.576,#556B2F,orthorhombic,{36},291.0
Kufahrite,PtPb,"{""Pt"": 1.0, ""Pb"": 1.0}",402.28,#FFFFFF,hexagonal,{7},123.0
Kukharenkoite-(Ce),Ba2Ce(CO3)3F,"{""Ba"": 2.0, ""Ce"": 1.0, ""C"": 3.0, ""O"": 9.0, ""F"": 1.0}",613.802,#FFFFFF,monoclinic,"{35,36}",1017.0
Kukharenkoite-(La),Ba2La(CO3)3F,"{""Ba"": 2.0, ""La"": 1.0, ""C"": 3.0, ""O"": 9.0, ""F"": 1.0}",612.592,#FFFFFF,monoclinic,{35},726.0
Kulanite,BaFe2+2Al2(PO4)3(OH)3,"{""Ba"": 1.0, ""Fe"": 2.0, ""Al"": 2.0, ""P"": 3.0, ""O"": 15.0, ""H"": 3.0}",638.915,#556B2F,monoclinic,"{22,34,47}",2809.0
Kuliginite,Fe3Mg(OH)6Cl2,"{""Fe"": 3.0, ""Mg"": 1.0, ""O"": 6.0, ""H"": 6.0, ""Cl"": 2.0}",364.782,#556B2F,hexagonal,"{7,16}",206.0
Kuliokite-(Y),Y4Al(SiO4)2(OH)2F5,"{""Y"": 4.0, ""Al"": 1.0, ""Si"": 2.0, ""O"": 10.0, ""H"": 2.0, ""F"": 5.0}",695.772,#FFFFFF,triclinic,{35},726.0
Kullerudite,NiSe2,"{""Ni"": 1.0, ""Se"": 2.0}",216.635,#7FFF00,orthorhombic,{47},1998.0
Kumdykolite,Na(AlSi3O8),"{""Na"": 1.0, ""Al"": 1.0, ""Si"": 3.0, ""O"": 8.0}",262.219,#FFFFFF,orthorhombic,"{4,39}",117.0
Kumtyubeite,Ca5(SiO4)2F2,"{""Ca"": 5.0, ""Si"": 2.0, ""O"": 8.0, ""F"": 2.0}",422.548,#FFFFFF,monoclinic,"{9,45,51,54}",913.0
Kunatite,CuFe3+2(PO4)2(OH)2·4H2O,"{""Cu"": 1.0, ""Fe"": 2.0, ""P"": 2.0, ""O"": 14.0, ""H"": 10.0}",471.25,#556B2F,monoclinic,"{31,34}",920.0
Kuratite,Ca2(Fe2+5Ti)O2[Si4Al2O18],"{""Ca"": 2.0, ""Fe"": 5.0, ""Ti"": 1.0, ""O"": 20.0, ""Si"": 4.0, ""Al"": 2.0}",893.532,#556B2F,triclinic,{5},94.0
Kurchatovite,CaMgB2O5,"{""Ca"": 1.0, ""Mg"": 1.0, ""B"": 2.0, ""O"": 5.0}",165.998,#FFFFFF,orthorhombic,{23},398.0
Kurgantaite,CaSrB5O9Cl·H2O,"{""Ca"": 1.0, ""Sr"": 1.0, ""B"": 5.0, ""O"": 10.0, ""Cl"": 1.0, ""H"": 2.0}",379.204,#FFFFFF,triclinic,{25},210.0
Kurilite,Ag8Te3Se,"{""Ag"": 8.0, ""Te"": 3.0, ""Se"": 1.0}",1324.731,#C0C0C0,hexagonal,{33},797.0
Kurnakovite,MgB3O3(OH)5·5H2O,"{""Mg"": 1.0, ""B"": 3.0, ""O"": 13.0, ""H"": 15.0}",279.842,#FFFFFF,triclinic,{25},210.0
Kusachiite,Cu2+Bi3+2O4,"{""Cu"": 1.0, ""Bi"": 2.0, ""O"": 4.0}",545.502,#00BFFF,tetragonal,{33},797.0
Kushiroite,CaAlAlSiO6,"{""Ca"": 1.0, ""Al"": 2.0, ""Si"": 1.0, ""O"": 6.0}",218.121,#FFFFFF,monoclinic,"{47,56}",2141.0
Kutinaite,Ag6Cu14As7,"{""Ag"": 6.0, ""Cu"": 14.0, ""As"": 7.0}",2061.318,#00BFFF,cubic,{33},797.0
Kuvaevite,Ir5Ni10S16,"{""Ir"": 5.0, ""Ni"": 10.0, ""S"": 16.0}",2060.99,#A9A9A9,hexagonal,{7},123.0
Kuzelite,Ca4Al2(OH)12(SO4)·6H2O,"{""Ca"": 4.0, ""Al"": 2.0, ""O"": 22.0, ""H"": 24.0, ""S"": 1.0}",622.506,#FFFFFF,hexagonal,"{9,25}",337.0
Kuzminite,HgBr,"{""Hg"": 1.0, ""Br"": 1.0}",280.494,#FFFFFF,tetragonal,{47},1998.0
Kuznetsovite,Hg1+2Hg2+(AsO4)Cl,"{""Hg"": 3.0, ""As"": 1.0, ""O"": 4.0, ""Cl"": 1.0}",776.138,#FFFFFF,cubic,{47},1998.0
Kvacekite,NiSbSe,"{""Ni"": 1.0, ""Sb"": 1.0, ""Se"": 1.0}",259.424,#7FFF00,cubic,{},1.0
Kvanefjeldite,Na4CaSi6O14(OH)2,"{""Na"": 4.0, ""Ca"": 1.0, ""Si"": 6.0, ""O"": 16.0, ""H"": 2.0}",558.548,#FFFFFF,orthorhombic,{22},247.0
Kyanite,Al2OSiO4,"{""Al"": 2.0, ""O"": 5.0, ""Si"": 1.0}",162.044,#FFFFFF,triclinic,"{26,36,39,40}",930.0
Kyawthuite,Bi3+Sb5+O4,"{""Bi"": 1.0, ""Sb"": 1.0, ""O"": 4.0}",394.736,#A9A9A9,monoclinic,"{26,34}",814.0
Kyzylkumite,Ti2V3+O5(OH),"{""Ti"": 2.0, ""V"": 1.0, ""O"": 6.0, ""H"": 1.0}",243.678,#FFFFFF,monoclinic,{33},797.0
Labuntsovite-Fe,Na4K4Fe2+2Ti8O4(Si4O12)4(OH)4·10-12H2O,"{""Na"": 4.0, ""K"": 4.0, ""Fe"": 2.0, ""Ti"": 8.0, ""O"": 68.0, ""Si"": 16.0, ""H"": 28.0}",2308.494,#556B2F,monoclinic,{35},726.0
Labuntsovite-Mg,Na4K4Mg2Ti8O4(Si4O12)4(OH)4·10-12H2O,"{""Na"": 4.0, ""K"": 4.0, ""Mg"": 2.0, ""Ti"": 8.0, ""O"": 68.0, ""Si"": 16.0, ""H"": 28.0}",2245.414,#FFFFFF,monoclinic,{35},726.0
Lacroixite,NaAl(PO4)F,"{""Na"": 1.0, ""Al"": 1.0, ""P"": 1.0, ""O"": 4.0, ""F"": 1.0}",163.94,#FFFFFF,monoclinic,"{34,36}",855.0
Laffittite,AgHgAsS3,"{""Ag"": 1.0, ""Hg"": 1.0, ""As"": 1.0, ""S"": 3.0}",479.562,#FFD700,monoclinic,{33},797.0
Laflammeite,Pd3Pb2S2,"{""Pd"": 3.0, ""Pb"": 2.0, ""S"": 2.0}",797.78,#708090,monoclinic,"{12,33,37}",1061.0
Lafossaite,TlCl,"{""Tl"": 1.0, ""Cl"": 1.0}",239.83,#FFFFFF,cubic,{45},424.0
Lakargiite,CaZrO3,"{""Ca"": 1.0, ""Zr"": 1.0, ""O"": 3.0}",179.299,#FFFFFF,orthorhombic,"{3,9,50,51,54}",810.0
Lakebogaite,NaCaFe2H(UO2)2(PO4)4(OH)2·8H2O,"{""Na"": 1.0, ""Ca"": 1.0, ""Fe"": 2.0, ""H"": 19.0, ""U"": 2.0, ""O"": 30.0, ""P"": 4.0}",1273.836,#556B2F,monoclinic,{47},1998.0
Lammerite,Cu3(AsO4)2,"{""Cu"": 3.0, ""As"": 2.0, ""O"": 8.0}",468.474,#00BFFF,monoclinic,"{45,47,56}",2565.0
Lamprophyllite,(SrNa)Ti2Na3Ti(Si2O7)2O2(OH)2,"{""Sr"": 1.0, ""Na"": 4.0, ""Ti"": 3.0, ""Si"": 4.0, ""O"": 18.0, ""H"": 2.0}",725.519,#FFFFFF,orthorhombic,{35},726.0
Lanarkite,Pb2O(SO4),"{""Pb"": 2.0, ""O"": 5.0, ""S"": 1.0}",526.455,#FFFF00,monoclinic,{47},1998.0
Langbeinite,K2Mg2(SO4)3,"{""K"": 2.0, ""Mg"": 2.0, ""S"": 3.0, ""O"": 12.0}",414.974,#FFFFFF,cubic,"{25,45,50,54}",1141.0
Langhofite,Pb2(OH)[WO4(OH)],"{""Pb"": 2.0, ""O"": 6.0, ""H"": 2.0, ""W"": 1.0}",696.25,#FFFFFF,triclinic,{47},1998.0
Langisite,CoAs,"{""Co"": 1.0, ""As"": 1.0}",133.855,#4169E1,orthorhombic,{33},797.0
Langite,Cu4(SO4)(OH)6·2H2O,"{""Cu"": 4.0, ""S"": 1.0, ""O"": 12.0, ""H"": 10.0}",488.312,#FFFFFF,monoclinic,"{47,55,56}",2405.0
Lanmuchangite,TlAl(SO4)2·12H2O,"{""Tl"": 1.0, ""Al"": 1.0, ""S"": 2.0, ""O"": 20.0, ""H"": 24.0}",639.654,#FFFFFF,cubic,{47},1998.0
Lannonite,HCa4Mg2Al4(SO4)8F9·32H2O,"{""H"": 65.0, ""Ca"": 4.0, ""Mg"": 2.0, ""Al"": 4.0, ""S"": 8.0, ""O"": 64.0, ""F"": 9.0}",1833.768,#FFFFFF,tetragonal,"{47,55}",2262.0
Lansfordite,Mg(CO3)·5H2O,"{""Mg"": 1.0, ""C"": 1.0, ""O"": 8.0, ""H"": 10.0}",174.388,#FFFFFF,monoclinic,"{47,49,50,53,55}",2729.0
Lanthanite-(Ce),Ce2(CO3)3·8H2O,"{""Ce"": 2.0, ""C"": 3.0, ""O"": 17.0, ""H"": 16.0}",604.384,#FFFFFF,orthorhombic,{47},1998.0
Lanthanite-(La),La2(CO3)3·8H2O,"{""La"": 2.0, ""C"": 3.0, ""O"": 17.0, ""H"": 16.0}",601.964,#FFFFFF,orthorhombic,{47},1998.0
Lanthanite-(Nd),Nd2(CO3)3·8H2O,"{""Nd"": 2.0, ""C"": 3.0, ""O"": 17.0, ""H"": 16.0}",612.624,#FFFFFF,orthorhombic,{47},1998.0
Lapeyreite,Cu3O[AsO3(OH)]2·H2O,"{""Cu"": 3.0, ""O"": 10.0, ""As"": 2.0, ""H"": 4.0}",504.504,#FFFFFF,monoclinic,{47},1998.0
Laphamite,As2Se3,"{""As"": 2.0, ""Se"": 3.0}",386.757,#808080,monoclinic,"{50,54}",507.0
Lapieite,CuNiSbS3,"{""Cu"": 1.0, ""Ni"": 1.0, ""Sb"": 1.0, ""S"": 3.0}",340.179,#A9A9A9,orthorhombic,{33},797.0
Laplandite-(Ce),Na4CeTiPSi7O22·5H2O,"{""Na"": 4.0, ""Ce"": 1.0, ""Ti"": 1.0, ""P"": 1.0, ""Si"": 7.0, ""O"": 27.0, ""H"": 10.0}",949.569,#FFFFFF,orthorhombic,{35},726.0
Laptevite-(Ce),NaFe2+(REE7Ca5Y3)(SiO4)4(Si3B2PO18)(BO3)F11,"{""Na"": 1.0, ""Fe"": 1.0, ""Ca"": 5.0, ""Y"": 3.0, ""Si"": 7.0, ""O"": 37.0, ""B"": 3.0, ""P"": 1.0, ""F"": 11.0}",1606.883,#556B2F,hexagonal,{35},726.0
Larderellite,(NH4)B5O7(OH)2·H2O,"{""N"": 1.0, ""H"": 8.0, ""B"": 5.0, ""O"": 10.0}",236.111,#FFFFFF,monoclinic,"{45,55,57}",737.0
Larisaite,Na(H3O)(UO2)3(Se4+O3)2O2·4H2O,"{""Na"": 1.0, ""H"": 11.0, ""O"": 19.0, ""U"": 3.0, ""Se"": 2.0}",1210.091,#FFFFFF,monoclinic,{47},1998.0
Larnite,Ca2(SiO4),"{""Ca"": 2.0, ""Si"": 1.0, ""O"": 4.0}",172.237,#FFFFFF,monoclinic,"{31,40,50,51,54}",1310.0
Lasalite,Na2Mg2V10O28·20H2O,"{""Na"": 2.0, ""Mg"": 2.0, ""V"": 10.0, ""O"": 48.0, ""H"": 40.0}",1412.282,#FFFFFF,monoclinic,"{47,55}",2262.0
Latrappite,Ca2NbFe3+O6,"{""Ca"": 2.0, ""Nb"": 1.0, ""Fe"": 1.0, ""O"": 6.0}",324.901,#556B2F,orthorhombic,"{35,36}",1017.0
Laumontite,CaAl2Si4O12·4H2O,"{""Ca"": 1.0, ""Al"": 2.0, ""Si"": 4.0, ""O"": 16.0, ""H"": 8.0}",470.43,#FFFFFF,monoclinic,"{10,14,16,22,40}",817.0
Lauraniite,Cu6Cd2(SO4)2(OH)12·5H2O,"{""Cu"": 6.0, ""Cd"": 2.0, ""S"": 2.0, ""O"": 25.0, ""H"": 22.0}",1092.367,#FFFFFF,monoclinic,{47},1998.0
Laurelite,Pb7F12Cl2,"{""Pb"": 7.0, ""F"": 12.0, ""Cl"": 2.0}",1749.276,#FFFFFF,hexagonal,{47},1998.0
Laurentianite,[NbO(H2O)]3(Si2O7)2[Na(H2O)2]3,"{""Nb"": 3.0, ""O"": 26.0, ""H"": 18.0, ""Si"": 4.0, ""Na"": 3.0}",894.146,#FFFFFF,hexagonal,"{47,55}",2262.0
Laurentthomasite,Mg2K(Be2Al)Si12O30,"{""Mg"": 2.0, ""K"": 1.0, ""Be"": 2.0, ""Al"": 1.0, ""Si"": 12.0, ""O"": 30.0}",949.7044,#FFFFFF,hexagonal,{34},564.0
Laurionite,PbCl(OH),"{""Pb"": 1.0, ""Cl"": 1.0, ""O"": 1.0, ""H"": 1.0}",259.657,#FFFFFF,orthorhombic,"{47,56}",2141.0
Laurite,RuS2,"{""Ru"": 1.0, ""S"": 2.0}",165.19,#A9A9A9,cubic,"{7,36,37,38}",657.0
Lausenite,Fe3+2(SO4)3·5H2O,"{""Fe"": 2.0, ""S"": 3.0, ""O"": 17.0, ""H"": 10.0}",489.933,#556B2F,monoclinic,"{47,50,54}",2505.0
Lautarite,Ca(IO3)2,"{""Ca"": 1.0, ""I"": 2.0, ""O"": 6.0}",389.872,#FFFFFF,monoclinic,{25},210.0
Lautenthalite,PbCu4(SO4)2(OH)6·3H2O,"{""Pb"": 1.0, ""Cu"": 4.0, ""S"": 2.0, ""O"": 17.0, ""H"": 12.0}",809.583,#FFFFFF,monoclinic,"{47,55,56}",2405.0
Lautite,CuAsS,"{""Cu"": 1.0, ""As"": 1.0, ""S"": 1.0}",170.528,#FFD700,orthorhombic,{33},797.0
Lavendulan,NaCaCu5(AsO4)4Cl·5H2O,"{""Na"": 1.0, ""Ca"": 1.0, ""Cu"": 5.0, ""As"": 4.0, ""O"": 21.0, ""Cl"": 1.0, ""H"": 10.0}",1061.995,#FFFFFF,monoclinic,"{47,55,56}",2405.0
Lavinskyite,K(LiCu)Cu6(Si4O11)2(OH)4,"{""K"": 1.0, ""Li"": 1.0, ""Cu"": 7.0, ""Si"": 8.0, ""O"": 26.0, ""H"": 4.0}",1135.546,#FFFFFF,orthorhombic,{22},247.0
Lavrentievite,Hg3S2Cl2,"{""Hg"": 3.0, ""S"": 2.0, ""Cl"": 2.0}",736.79,#A9A9A9,triclinic,"{23,33}",1195.0
Lawrencite,FeCl2,"{""Fe"": 1.0, ""Cl"": 2.0}",126.745,#8B4513,hexagonal,"{45,47,50,54}",2929.0
Lawsonite,CaAl2(Si2O7)(OH)2·H2O,"{""Ca"": 1.0, ""Al"": 2.0, ""Si"": 2.0, ""O"": 10.0, ""H"": 4.0}",314.234,#FFFFFF,monoclinic,"{16,39,40,41}",488.0
Lazaraskeite,Cu(C2H3O3)2,"{""Cu"": 1.0, ""C"": 4.0, ""H"": 6.0, ""O"": 6.0}",213.632,#FFFFFF,monoclinic,{53},117.0
Lazarenkoite,CaFe3+As3+3O7·3H2O,"{""Ca"": 1.0, ""Fe"": 1.0, ""As"": 3.0, ""O"": 10.0, ""H"": 6.0}",486.727,#556B2F,orthorhombic,{47},1998.0
Lazaridisite,Cd3(SO4)3·8H2O,"{""Cd"": 3.0, ""S"": 3.0, ""O"": 20.0, ""H"": 16.0}",769.518,#FFFFFF,monoclinic,{47},1998.0
Lazulite,MgAl2(PO4)2(OH)2,"{""Mg"": 1.0, ""Al"": 2.0, ""P"": 2.0, ""O"": 10.0, ""H"": 2.0}",302.223,#FFFFFF,monoclinic,"{34,40}",883.0
Lazurite,Na7Ca(Al6Si6O24)(SO4)(S3)1-·H2O,"{""Na"": 7.0, ""Ca"": 1.0, ""Al"": 6.0, ""Si"": 6.0, ""O"": 29.0, ""S"": 4.0, ""H"": 2.0}",1125.637,#FFFFFF,orthorhombic,{31},356.0
Lead,Pb,"{""Pb"": 1.0}",207.2,#FFFFFF,cubic,"{26,29,33,36,38,47,50,53,54}",4075.0
Leadamalgam,HgPb2,"{""Hg"": 1.0, ""Pb"": 2.0}",614.99,#FFFFFF,tetragonal,{33},797.0
Leadhillite,Pb4(SO4)(CO3)2(OH)2,"{""Pb"": 4.0, ""S"": 1.0, ""O"": 12.0, ""C"": 2.0, ""H"": 2.0}",1078.886,#FFFFFF,monoclinic,{47},1998.0
Lebedevite,K4Na14Cu14O8(AsO4)8Cl6,"{""K"": 4.0, ""Na"": 14.0, ""Cu"": 14.0, ""O"": 40.0, ""As"": 8.0, ""Cl"": 6.0}",2819.932,#FFFFFF,tetragonal,{},1.0
Lechatelierite,SiO2,"{""Si"": 1.0, ""O"": 2.0}",60.083,#FFFFFF,unknown,"{29,30}",23.0
Lechnerite,Ag10Cu4HgPb33Sb58S128,"{""Ag"": 10.0, ""Cu"": 4.0, ""Hg"": 1.0, ""Pb"": 33.0, ""Sb"": 58.0, ""S"": 128.0}",19536.834,#708090,triclinic,{},1.0
Lecontite,(NH4)Na(SO4)·2H2O,"{""N"": 1.0, ""H"": 8.0, ""Na"": 1.0, ""S"": 1.0, ""O"": 6.0}",173.115,#FFFFFF,orthorhombic,"{45,52}",496.0
Lecoqite-(Y),Na3Y(CO3)3·6H2O,"{""Na"": 3.0, ""Y"": 1.0, ""C"": 3.0, ""O"": 15.0, ""H"": 12.0}",445.99,#FFFFFF,hexagonal,"{22,35}",973.0
Lednevite,Cu[PO3(OH)]·H2O,"{""Cu"": 1.0, ""P"": 1.0, ""O"": 5.0, ""H"": 3.0}",177.539,#FFFFFF,monoclinic,{},1.0
Leesite,K(H2O)2[(UO2)4O2(OH)5]·3H2O,"{""K"": 1.0, ""H"": 15.0, ""O"": 20.0, ""U"": 4.0}",1326.318,#FFFFFF,orthorhombic,{47},1998.0
Lefontite,Fe2Al2Be(PO4)2(OH)6,"{""Fe"": 2.0, ""Al"": 2.0, ""Be"": 1.0, ""P"": 2.0, ""O"": 14.0, ""H"": 6.0}",466.6482,#556B2F,orthorhombic,"{22,34,47}",2809.0
Lehmannite,Na18Cu12TiO8(AsO4)8FCl5,"{""Na"": 18.0, ""Cu"": 12.0, ""Ti"": 1.0, ""O"": 40.0, ""As"": 8.0, ""F"": 1.0, ""Cl"": 5.0}",2659.823,#FFFFFF,monoclinic,{45},424.0
Leightonite,K2Ca2Cu(SO4)4·2H2O,"{""K"": 2.0, ""Ca"": 2.0, ""Cu"": 1.0, ""S"": 4.0, ""O"": 18.0, ""H"": 4.0}",642.152,#FFFFFF,monoclinic,{47},1998.0
Leisingite,Cu2MgTe6+O6·6H2O,"{""Cu"": 2.0, ""Mg"": 1.0, ""Te"": 1.0, ""O"": 12.0, ""H"": 12.0}",483.081,#FFFFFF,hexagonal,"{47,55}",2262.0
Lemanskiite,NaCaCu5(AsO4)4Cl·3H2O,"{""Na"": 1.0, ""Ca"": 1.0, ""Cu"": 5.0, ""As"": 4.0, ""O"": 19.0, ""Cl"": 1.0, ""H"": 6.0}",1025.965,#FFFFFF,monoclinic,{47},1998.0
Lemoynite,Na2CaZr2Si10O26·5-6H2O,"{""Na"": 2.0, ""Ca"": 1.0, ""Zr"": 2.0, ""Si"": 10.0, ""O"": 32.0, ""H"": 12.0}",1073.42,#FFFFFF,monoclinic,{35},726.0
Lenaite,AgFeS2,"{""Ag"": 1.0, ""Fe"": 1.0, ""S"": 2.0}",227.835,#DAA520,tetragonal,{14},61.0
Lengenbachite,Ag4Cu2Pb18As12S39,"{""Ag"": 4.0, ""Cu"": 2.0, ""Pb"": 18.0, ""As"": 12.0, ""S"": 39.0}",6437.576,#708090,triclinic,{33},797.0
Leningradite,PbCu3(VO4)2Cl2,"{""Pb"": 1.0, ""Cu"": 3.0, ""V"": 2.0, ""O"": 8.0, ""Cl"": 2.0}",698.614,#FFFFFF,orthorhombic,{45},424.0
Lenoblite,V4+2O4·2H2O,"{""V"": 2.0, ""O"": 6.0, ""H"": 4.0}",201.91,#FFFFFF,unknown,{47},1998.0
Leogangite,Cu10(AsO4)4(SO4)(OH)6·8H2O,"{""Cu"": 10.0, ""As"": 4.0, ""O"": 34.0, ""S"": 1.0, ""H"": 22.0}",1533.35,#FFFFFF,monoclinic,{47},1998.0
Leonardsenite,MgAlF5·2H2O,"{""Mg"": 1.0, ""Al"": 1.0, ""F"": 5.0, ""H"": 4.0, ""O"": 2.0}",182.307,#FFFFFF,orthorhombic,{45},424.0
Leonite,K2Mg(SO4)2·4H2O,"{""K"": 2.0, ""Mg"": 1.0, ""S"": 2.0, ""O"": 12.0, ""H"": 8.0}",366.673,#FFFFFF,monoclinic,"{25,45}",634.0
Leoszilardite,Na6Mg(UO2)2(CO3)6·6H2O,"{""Na"": 6.0, ""Mg"": 1.0, ""U"": 2.0, ""O"": 28.0, ""C"": 6.0, ""H"": 12.0}",1170.439,#FFFFFF,monoclinic,{47},1998.0
Lepersonnite-(Gd),CaGd2(UO2)24(CO3)8Si4O28·60H2O,"{""Ca"": 1.0, ""Gd"": 2.0, ""U"": 24.0, ""O"": 160.0, ""C"": 8.0, ""Si"": 4.0, ""H"": 120.0}",8956.526,#FFFFFF,orthorhombic,{47},1998.0
Lepersonnite-(Nd),Nd4(UO2)24(SiO4)4(CO3)8(OH)28·48H2O,"{""Nd"": 4.0, ""U"": 24.0, ""O"": 164.0, ""Si"": 4.0, ""C"": 8.0, ""H"": 124.0}",9246.936,#FFFFFF,orthorhombic,{47},1998.0
Lepidocrocite,Fe3+O(OH),"{""Fe"": 1.0, ""O"": 2.0, ""H"": 1.0}",88.851,#8B4513,orthorhombic,"{24,47,48,49,57}",2269.0
Lermontovite,U4+(PO4)(OH)·H2O,"{""U"": 1.0, ""P"": 1.0, ""O"": 6.0, ""H"": 3.0}",368.022,#FFFFFF,orthorhombic,"{23,34}",962.0
Letovicite,(NH4)3H(SO4)2,"{""N"": 3.0, ""H"": 13.0, ""S"": 2.0, ""O"": 8.0}",247.237,#FFFFFF,monoclinic,"{14,50,54}",568.0
Leucite,K(AlSi2O6),"{""K"": 1.0, ""Al"": 1.0, ""Si"": 2.0, ""O"": 6.0}",218.244,#FFFFFF,cubic,"{8,9,35,50,54}",1453.0
Leucophanite,NaCaBeSi2O6F,"{""Na"": 1.0, ""Ca"": 1.0, ""Be"": 1.0, ""Si"": 2.0, ""O"": 6.0, ""F"": 1.0}",243.2422,#FFFFFF,triclinic,{35},726.0
Leucophosphite,KFe3+2(PO4)2(OH)·2H2O,"{""K"": 1.0, ""Fe"": 2.0, ""P"": 2.0, ""O"": 11.0, ""H"": 5.0}",393.765,#556B2F,monoclinic,"{21,31}",435.0
Leucosphenite,Na4BaTi2B2Si10O30,"{""Na"": 4.0, ""Ba"": 1.0, ""Ti"": 2.0, ""B"": 2.0, ""Si"": 10.0, ""O"": 30.0}",1107.464,#FFFFFF,monoclinic,"{24,35}",800.0
Levantite,KCa3Al2(SiO4)(Si2O7)(PO4),"{""K"": 1.0, ""Ca"": 3.0, ""Al"": 2.0, ""Si"": 3.0, ""O"": 15.0, ""P"": 1.0}",568.51,#FFFFFF,monoclinic,{51},128.0
Leverettite,Cu3CoCl2(OH)6,"{""Cu"": 3.0, ""Co"": 1.0, ""Cl"": 2.0, ""O"": 6.0, ""H"": 6.0}",422.513,#FFFFFF,hexagonal,{47},1998.0
Levinsonite-(Y),YAl(SO4)2(C2O4)·12H2O,"{""Y"": 1.0, ""Al"": 1.0, ""S"": 2.0, ""O"": 24.0, ""C"": 2.0, ""H"": 24.0}",612.198,#FFFFFF,monoclinic,"{47,53}",2115.0
Levyne-Ca,Ca3(Si12Al6)O36·18H2O,"{""Ca"": 3.0, ""Si"": 12.0, ""Al"": 6.0, ""O"": 54.0, ""H"": 36.0}",1519.38,#FFFFFF,hexagonal,{10},107.0
Levyne-Na,Na6(Si12Al6)O36·18H2O,"{""Na"": 6.0, ""Si"": 12.0, ""Al"": 6.0, ""O"": 54.0, ""H"": 36.0}",1537.086,#FFFFFF,hexagonal,{10},107.0
Leybovite-K,KCuNa(MgFe3+)(AsO4)3,"{""K"": 1.0, ""Cu"": 1.0, ""Na"": 1.0, ""Mg"": 1.0, ""Fe"": 1.0, ""As"": 3.0, ""O"": 12.0}",622.538,#556B2F,monoclinic,{},1.0
Leydetite,Fe(UO2)(SO4)2·11H2O,"{""Fe"": 1.0, ""U"": 1.0, ""O"": 21.0, ""S"": 2.0, ""H"": 22.0}",716.15,#556B2F,monoclinic,{47},1998.0
Lianbinite,(NH4)(C2H3O3)(C2H4O3),"{""N"": 1.0, ""H"": 11.0, ""C"": 4.0, ""O"": 6.0}",169.133,#FFFFFF,monoclinic,{53},117.0
Liandratite,U6+Nb2O8,"{""U"": 1.0, ""Nb"": 2.0, ""O"": 8.0}",551.834,#ADFF2F,hexagonal,"{34,47}",2562.0
Liangjunite,K2(Mo2O5)(SO4)2·3H2O,"{""K"": 2.0, ""Mo"": 2.0, ""O"": 16.0, ""S"": 2.0, ""H"": 6.0}",596.248,#FFFFFF,triclinic,{},1.0