name,formula,elements,density,color,crystal,pm_ids,gacha_weight
Eliopoulosite,V7S8,"{""V"": 7.0, ""S"": 8.0}",613.074,#A9A9A9,hexagonal,"{33,36}",1088.0
Elkinstantonite,Fe4(PO4)2O,"{""Fe"": 4.0, ""P"": 2.0, ""O"": 9.0}",429.319,#8B4513,monoclinic,{},1.0
Ellinaite,CaCr2O4,"{""Ca"": 1.0, ""Cr"": 2.0, ""O"": 4.0}",208.066,#228B22,orthorhombic,{31},356.0
Ellingsenite,Na5Ca6Si18O38(OH)13·6H2O,"{""Na"": 5.0, ""Ca"": 6.0, ""Si"": 18.0, ""O"": 57.0, ""H"": 25.0}",1798.091,#FFFFFF,triclinic,"{35,47}",2724.0
Elliottite,NaMgAl3(PO4)2F6·9H2O,"{""Na"": 1.0, ""Mg"": 1.0, ""Al"": 3.0, ""P"": 2.0, ""O"": 17.0, ""F"": 6.0, ""H"": 18.0}",594.304,#FFFFFF,monoclinic,{},1.0
Ellisite,Tl3AsS3,"{""Tl"": 3.0, ""As"": 1.0, ""S"": 3.0}",784.242,#FFD700,hexagonal,{33},797.0
Elpasolite,K2NaAlF6,"{""K"": 2.0, ""Na"": 1.0, ""Al"": 1.0, ""F"": 6.0}",242.156,#FFFFFF,cubic,{22},247.0
Elpidite,Na2ZrSi6O15·3H2O,"{""Na"": 2.0, ""Zr"": 1.0, ""Si"": 6.0, ""O"": 18.0, ""H"": 6.0}",599.744,#FFFFFF,orthorhombic,"{34,35}",1290.0
Eltyubyuite,Ca12Fe3+10Si4O32Cl6,"{""Ca"": 12.0, ""Fe"": 10.0, ""Si"": 4.0, ""O"": 32.0, ""Cl"": 6.0}",1876.394,#556B2F,cubic,"{45,51,54}",786.0
Elyite,CuPb4(SO4)O2(OH)4·H2O,"{""Cu"": 1.0, ""Pb"": 4.0, ""S"": 1.0, ""O"": 11.0, ""H"": 6.0}",1106.443,#FFFFFF,monoclinic,"{47,55,56}",2405.0
Embreyite,Pb5(CrO4)2(PO4)2·H2O,"{""Pb"": 5.0, ""Cr"": 2.0, ""O"": 17.0, ""P"": 2.0, ""H"": 2.0}",1475.939,#FFFFFF,monoclinic,{47},1998.0
Emeleusite,Na2LiFe3+Si6O15,"{""Na"": 2.0, ""Li"": 1.0, ""Fe"": 1.0, ""Si"": 6.0, ""O"": 15.0}",517.26,#556B2F,orthorhombic,{19},143.0
Emmerichite,Ba2Ti2Na3Fe3+(Si2O7)2O2F2,"{""Ba"": 2.0, ""Ti"": 2.0, ""Na"": 3.0, ""Fe"": 1.0, ""Si"": 4.0, ""O"": 16.0, ""F"": 2.0}",901.529,#556B2F,monoclinic,{35},726.0
Emmonsite,Fe3+2(Te4+O3)3·2H2O,"{""Fe"": 2.0, ""Te"": 3.0, ""O"": 11.0, ""H"": 4.0}",674.511,#556B2F,triclinic,{47},1998.0
Emplectite,CuBiS2,"{""Cu"": 1.0, ""Bi"": 1.0, ""S"": 2.0}",336.646,#A9A9A9,orthorhombic,{33},797.0
Empressite,AgTe,"{""Ag"": 1.0, ""Te"": 1.0}",235.47,#C0C0C0,orthorhombic,{33},797.0
Enargite,Cu3AsS4,"{""Cu"": 3.0, ""As"": 1.0, ""S"": 4.0}",393.8,#FFD700,orthorhombic,{33},797.0
Engelhauptite,KCu3(V2O7)(OH)2Cl,"{""K"": 1.0, ""Cu"": 3.0, ""V"": 2.0, ""O"": 9.0, ""H"": 2.0, ""Cl"": 1.0}",513.077,#FFFFFF,hexagonal,{47},1998.0
Englishite,K3Na2Ca10Al15(OH)7(PO4)21·26H2O,"{""K"": 3.0, ""Na"": 2.0, ""Ca"": 10.0, ""Al"": 15.0, ""O"": 117.0, ""H"": 59.0, ""P"": 21.0}",3550.593,#FFFFFF,monoclinic,"{21,34,47}",2641.0
Enneasartorite,Tl6Pb32As70S140,"{""Tl"": 6.0, ""Pb"": 32.0, ""As"": 70.0, ""S"": 140.0}",17589.62,#708090,monoclinic,{33},797.0
Enricofrancoite,KNaCaSi4O10,"{""K"": 1.0, ""Na"": 1.0, ""Ca"": 1.0, ""Si"": 4.0, ""O"": 10.0}",374.496,#FFFFFF,triclinic,{},1.0
Enstatite,Mg2Si2O6,"{""Mg"": 2.0, ""Si"": 2.0, ""O"": 6.0}",200.774,#FFFFFF,orthorhombic,"{1,4,5,6,7,12,36,38,39,40}",1408.0
Ephesite,NaLiAl2(Si2Al2)O10(OH)2,"{""Na"": 1.0, ""Li"": 1.0, ""Al"": 4.0, ""Si"": 2.0, ""O"": 12.0, ""H"": 2.0}",388.032,#FFFFFF,triclinic,"{22,23,40}",964.0
Epididymite,Na2Be2Si6O15·H2O,"{""Na"": 2.0, ""Be"": 2.0, ""Si"": 6.0, ""O"": 16.0, ""H"": 2.0}",490.5144,#FFFFFF,orthorhombic,"{19,35}",869.0
Epidote,Ca2(Al2Fe3+)[Si2O7][SiO4]O(OH),"{""Ca"": 2.0, ""Al"": 2.0, ""Fe"": 1.0, ""Si"": 3.0, ""O"": 13.0, ""H"": 1.0}",483.215,#556B2F,monoclinic,"{16,22,31,39,40,43}",1084.0
Epidote-(Sr),CaSr(Al2Fe3+)[Si2O7][SiO4]O(OH),"{""Ca"": 1.0, ""Sr"": 1.0, ""Al"": 2.0, ""Fe"": 1.0, ""Si"": 3.0, ""O"": 13.0, ""H"": 1.0}",530.757,#556B2F,monoclinic,"{31,32,39,40}",1157.0
Epifanovite,NaCaCu5(PO4)4[AsO2(OH)2]·7H2O,"{""Na"": 1.0, ""Ca"": 1.0, ""Cu"": 5.0, ""P"": 4.0, ""O"": 27.0, ""As"": 1.0, ""H"": 16.0}",1027.717,#FFFFFF,monoclinic,{47},1998.0
Epistilbite,Ca3[Si18Al6O48]·16H2O,"{""Ca"": 3.0, ""Si"": 18.0, ""Al"": 6.0, ""O"": 64.0, ""H"": 32.0}",1843.848,#FFFFFF,triclinic,"{10,16,22}",437.0
Epsomite,Mg(SO4)·7H2O,"{""Mg"": 1.0, ""S"": 1.0, ""O"": 11.0, ""H"": 14.0}",246.466,#FFFFFF,orthorhombic,"{6,21,25,45,49,50,54,55}",1766.0
Erdite,NaFeS2·2H2O,"{""Na"": 1.0, ""Fe"": 1.0, ""S"": 2.0, ""H"": 4.0, ""O"": 2.0}",178.985,#556B2F,monoclinic,"{19,47}",2141.0
Ericaite,Fe2+3B7O13Cl,"{""Fe"": 3.0, ""B"": 7.0, ""O"": 13.0, ""Cl"": 1.0}",486.642,#556B2F,orthorhombic,{25},210.0
Ericlaxmanite,Cu4O(AsO4)2,"{""Cu"": 4.0, ""O"": 9.0, ""As"": 2.0}",548.019,#00BFFF,triclinic,{45},424.0
Eringaite,Ca3Sc2(SiO4)3,"{""Ca"": 3.0, ""Sc"": 2.0, ""Si"": 3.0, ""O"": 12.0}",486.389,#FFFFFF,cubic,{3},48.0
Eriochalcite,CuCl2·2H2O,"{""Cu"": 1.0, ""Cl"": 2.0, ""H"": 4.0, ""O"": 2.0}",170.476,#FFFFFF,orthorhombic,"{45,47,55}",2686.0
Erionite-Ca,Ca5[Si26Al10O72]·30H2O,"{""Ca"": 5.0, ""Si"": 26.0, ""Al"": 10.0, ""O"": 102.0, ""H"": 60.0}",2892.798,#FFFFFF,hexagonal,"{10,14,16,17,24,25}",586.0
Erionite-K,K10[Si26Al10O72]·30H2O,"{""K"": 10.0, ""Si"": 26.0, ""Al"": 10.0, ""O"": 102.0, ""H"": 60.0}",3083.388,#FFFFFF,hexagonal,"{10,14,16,17,24,25}",586.0
Erionite-Na,Na10[Si26Al10O72]·30H2O,"{""Na"": 10.0, ""Si"": 26.0, ""Al"": 10.0, ""O"": 102.0, ""H"": 60.0}",2922.308,#FFFFFF,hexagonal,"{10,14,16,17,24,25}",586.0
Erlianite,Fe2+4Fe3+2Si6O15(OH)8,"{""Fe"": 6.0, ""Si"": 6.0, ""O"": 23.0, ""H"": 8.0}",879.621,#556B2F,orthorhombic,{40},319.0
Erlichmanite,OsS2,"{""Os"": 1.0, ""S"": 2.0}",254.35,#A9A9A9,cubic,"{6,36,37,38}",739.0
Ermakovite,(NH4)(As2O3)2Br,"{""N"": 1.0, ""H"": 4.0, ""As"": 4.0, ""O"": 6.0, ""Br"": 1.0}",493.625,#FFFFFF,hexagonal,{51},128.0
Ermeloite,Al(PO4)·H2O,"{""Al"": 1.0, ""P"": 1.0, ""O"": 5.0, ""H"": 2.0}",139.967,#FFFFFF,monoclinic,{47},1998.0
Ernstburkeite,Mg(CH3SO3)2·12H2O,"{""Mg"": 1.0, ""C"": 2.0, ""H"": 30.0, ""S"": 2.0, ""O"": 18.0}",430.669,#FFFFFF,hexagonal,{18},4.0
Erssonite,CaMg7Fe3+2(OH)18(SO4)2·12H2O,"{""Ca"": 1.0, ""Mg"": 7.0, ""Fe"": 2.0, ""O"": 38.0, ""H"": 42.0, ""S"": 2.0}",1036.321,#556B2F,hexagonal,{47},1998.0
Ertixiite,Na2Si4O9,"{""Na"": 2.0, ""Si"": 4.0, ""O"": 9.0}",302.311,#FFFFFF,cubic,{34},564.0
Ertlite,NaAl3Al6(Si4B2O18)(BO3)3(OH)3O,"{""Na"": 1.0, ""Al"": 9.0, ""Si"": 4.0, ""B"": 5.0, ""O"": 31.0, ""H"": 3.0}",931.211,#FFFFFF,hexagonal,{},1.0
Erythrite,Co3(AsO4)2·8H2O,"{""Co"": 3.0, ""As"": 2.0, ""O"": 16.0, ""H"": 16.0}",598.755,#FFFFFF,monoclinic,{47},1998.0
Erythrosiderite,K2Fe3+Cl5·H2O,"{""K"": 2.0, ""Fe"": 1.0, ""Cl"": 5.0, ""H"": 2.0, ""O"": 1.0}",329.306,#556B2F,orthorhombic,"{25,45}",634.0
Erzwiesite,Ag8Pb12Bi16S40,"{""Ag"": 8.0, ""Pb"": 12.0, ""Bi"": 16.0, ""S"": 40.0}",7975.44,#708090,orthorhombic,{33},797.0
Eskebornite,CuFeSe2,"{""Cu"": 1.0, ""Fe"": 1.0, ""Se"": 2.0}",277.333,#00BFFF,tetragonal,{33},797.0
Eskimoite,Ag7Pb10Bi15S36,"{""Ag"": 7.0, ""Pb"": 10.0, ""Bi"": 15.0, ""S"": 36.0}",7115.95,#708090,monoclinic,{33},797.0
Eskolaite,Cr2O3,"{""Cr"": 2.0, ""O"": 3.0}",151.989,#228B22,hexagonal,"{1,5,6,26,31,36,40}",1537.0
Espadaite,Na4Ca3Mg2[AsO3(OH)]2[AsO2(OH)2]10(H2O)6·H2O,"{""Na"": 4.0, ""Ca"": 3.0, ""Mg"": 2.0, ""As"": 12.0, ""O"": 55.0, ""H"": 36.0}",2076.101,#FFFFFF,orthorhombic,{47},1998.0
Esperanzaite,NaCa2Al2(AsO4)2F4(OH)·2H2O,"{""Na"": 1.0, ""Ca"": 2.0, ""Al"": 2.0, ""As"": 2.0, ""O"": 11.0, ""F"": 4.0, ""H"": 5.0}",563.975,#FFFFFF,monoclinic,{47},1998.0
Esquireite,BaSi6O13·7H2O,"{""Ba"": 1.0, ""Si"": 6.0, ""O"": 20.0, ""H"": 14.0}",639.932,#FFFFFF,monoclinic,{47},1998.0
Esseneite,CaFe3+AlSiO6,"{""Ca"": 1.0, ""Fe"": 1.0, ""Al"": 1.0, ""Si"": 1.0, ""O"": 6.0}",246.984,#556B2F,monoclinic,"{45,50,51,54}",1059.0
Ettringite,Ca6Al2(SO4)3(OH)12·27H2O,"{""Ca"": 6.0, ""Al"": 2.0, ""S"": 3.0, ""O"": 51.0, ""H"": 66.0}",1273.089,#FFFFFF,hexagonal,"{31,47,51}",2482.0
Eucairite,CuAgSe,"{""Cu"": 1.0, ""Ag"": 1.0, ""Se"": 1.0}",250.387,#00BFFF,orthorhombic,{33},797.0
Euchlorine,KNaCu3O(SO4)3,"{""K"": 1.0, ""Na"": 1.0, ""Cu"": 3.0, ""O"": 13.0, ""S"": 3.0}",556.893,#FFFFFF,monoclinic,{45},424.0
Euchroite,Cu2(AsO4)(OH)·3H2O,"{""Cu"": 2.0, ""As"": 1.0, ""O"": 8.0, ""H"": 7.0}",337.062,#FFFFFF,orthorhombic,{47},1998.0
Euclase,BeAlSiO4(OH),"{""Be"": 1.0, ""Al"": 1.0, ""Si"": 1.0, ""O"": 5.0, ""H"": 1.0}",145.0822,#FFFFFF,monoclinic,"{34,47}",2562.0
Eucryptite,LiAlSiO4,"{""Li"": 1.0, ""Al"": 1.0, ""Si"": 1.0, ""O"": 4.0}",126.003,#FFFFFF,hexagonal,{34},564.0
Eudidymite,Na2Be2Si6O15·H2O,"{""Na"": 2.0, ""Be"": 2.0, ""Si"": 6.0, ""O"": 16.0, ""H"": 2.0}",490.5144,#FFFFFF,monoclinic,"{19,35}",869.0
Eugenite,Ag11Hg2,"{""Ag"": 11.0, ""Hg"": 2.0}",1587.75,#C0C0C0,cubic,{33},797.0
Eugsterite,Na4Ca(SO4)3·2H2O,"{""Na"": 4.0, ""Ca"": 1.0, ""S"": 3.0, ""O"": 14.0, ""H"": 4.0}",456.236,#FFFFFF,unknown,{25},210.0
Eulytine,Bi4(SiO4)3,"{""Bi"": 4.0, ""Si"": 3.0, ""O"": 12.0}",1112.163,#D2B48C,cubic,{33},797.0
Euxenite-(Y),Y(NbTi)O6,"{""Y"": 1.0, ""Nb"": 1.0, ""Ti"": 1.0, ""O"": 6.0}",325.673,#FFFFFF,orthorhombic,"{26,34}",814.0
Evanichite,Pb6Cr3+(Cr6+O4)2(SO4)(OH)7FCl,"{""Pb"": 6.0, ""Cr"": 3.0, ""O"": 19.0, ""S"": 1.0, ""H"": 7.0, ""F"": 1.0, ""Cl"": 1.0}",1796.733,#FFFFFF,hexagonal,{47},1998.0
Evansite,Al3(PO4)(OH)6·8H2O,"{""Al"": 3.0, ""P"": 1.0, ""O"": 18.0, ""H"": 22.0}",422.078,#FFFFFF,unknown,"{47,50,52}",2343.0
Evdokimovite,Tl4(VO)3(SO4)5(H2O)5,"{""Tl"": 4.0, ""V"": 3.0, ""O"": 28.0, ""S"": 5.0, ""H"": 10.0}",1588.698,#FFFFFF,monoclinic,{45},424.0
Evenkite,C23H48,"{""C"": 23.0, ""H"": 48.0}",324.637,#FFFFFF,orthorhombic,"{10,50,54}",614.0
Evseevite,Na2Mg(AsO4)F,"{""Na"": 2.0, ""Mg"": 1.0, ""As"": 1.0, ""O"": 4.0, ""F"": 1.0}",228.201,#FFFFFF,orthorhombic,{45},424.0
Ewingite,Mg8Ca8(UO2)24(CO3)30O4(OH)12(H2O)138,"{""Mg"": 8.0, ""Ca"": 8.0, ""U"": 24.0, ""O"": 292.0, ""C"": 30.0, ""H"": 288.0}",11550.126,#FFFFFF,tetragonal,{47},1998.0
Eyselite,Fe3+Ge4+3O7(OH),"{""Fe"": 1.0, ""Ge"": 3.0, ""O"": 8.0, ""H"": 1.0}",402.735,#556B2F,orthorhombic,{47},1998.0
Ezcurrite,Na2B5O7(OH)3·2H2O,"{""Na"": 2.0, ""B"": 5.0, ""O"": 12.0, ""H"": 7.0}",299.074,#FFFFFF,triclinic,{47},1998.0
Ezochiite,Cu+(Rh3+Pt4+)S4,"{""Cu"": 1.0, ""Rh"": 1.0, ""Pt"": 1.0, ""S"": 4.0}",489.776,#A9A9A9,cubic,{},1.0
Eztlite,Pb2Fe3+3(Te4+O3)3(SO4)O2Cl,"{""Pb"": 2.0, ""Fe"": 3.0, ""Te"": 3.0, ""O"": 15.0, ""S"": 1.0, ""Cl"": 1.0}",1272.23,#556B2F,monoclinic,{47},1998.0
Fabianite,CaB3O5(OH),"{""Ca"": 1.0, ""B"": 3.0, ""O"": 6.0, ""H"": 1.0}",169.51,#FFFFFF,monoclinic,{47},1998.0
Fabriesite,Na3Al3Si3O12·2H2O,"{""Na"": 3.0, ""Al"": 3.0, ""Si"": 3.0, ""O"": 14.0, ""H"": 4.0}",462.189,#FFFFFF,orthorhombic,{47},1998.0
Fairbankite,Pb2+12(Te4+O3)11(SO4),"{""Pb"": 12.0, ""Te"": 11.0, ""O"": 37.0, ""S"": 1.0}",4514.023,#FFFFFF,triclinic,"{47,55}",2262.0
Fairchildite,K2Ca(CO3)2,"{""K"": 2.0, ""Ca"": 1.0, ""C"": 2.0, ""O"": 6.0}",238.29,#FFFFFF,hexagonal,"{36,53,56}",551.0
Faizievite,Li6K2Na(Ca6Na)Ti4(Si6O18)2(Si12O30)F2,"{""Li"": 6.0, ""K"": 2.0, ""Na"": 2.0, ""Ca"": 6.0, ""Ti"": 4.0, ""Si"": 24.0, ""O"": 66.0, ""F"": 2.0}",2365.722,#FFFFFF,triclinic,{34},564.0
Falcondoite,Ni4Si6O15(OH)2·6H2O,"{""Ni"": 4.0, ""Si"": 6.0, ""O"": 23.0, ""H"": 14.0}",785.371,#FFFFFF,orthorhombic,"{13,47}",2065.0
Falgarite,K4(VO)3(SO4)5,"{""K"": 4.0, ""V"": 3.0, ""O"": 23.0, ""S"": 5.0}",837.495,#FFFFFF,monoclinic,{54},234.0
Falkmanite,Pb3Sb2S6,"{""Pb"": 3.0, ""Sb"": 2.0, ""S"": 6.0}",1057.48,#708090,monoclinic,{33},797.0
Famatinite,Cu3SbS4,"{""Cu"": 3.0, ""Sb"": 1.0, ""S"": 4.0}",440.638,#A9A9A9,tetragonal,{12},129.0
Fangite,Tl3AsS4,"{""Tl"": 3.0, ""As"": 1.0, ""S"": 4.0}",816.302,#FFD700,orthorhombic,{33},797.0
Fanguangite,(MoO2)(PO3OH)·4H2O,"{""Mo"": 1.0, ""O"": 10.0, ""P"": 1.0, ""H"": 9.0}",295.986,#FFFFFF,triclinic,{},1.0
Farneseite,Na46Ca10(Si42Al42O168)(SO4)12·6H2O,"{""Na"": 46.0, ""Ca"": 10.0, ""Si"": 42.0, ""Al"": 42.0, ""O"": 222.0, ""S"": 12.0, ""H"": 12.0}",7719.728,#FFFFFF,hexagonal,{45},424.0
Farringtonite,Mg3(PO4)2,"{""Mg"": 3.0, ""P"": 2.0, ""O"": 8.0}",262.855,#FFFFFF,monoclinic,"{5,6}",299.0
Fassinaite,Pb2(CO3)(S2O3),"{""Pb"": 2.0, ""C"": 1.0, ""O"": 6.0, ""S"": 2.0}",586.525,#FFFFFF,orthorhombic,"{47,56}",2141.0
Favreauite,PbBiCu6O4(SeO3)4(OH)·H2O,"{""Pb"": 1.0, ""Bi"": 1.0, ""Cu"": 6.0, ""O"": 18.0, ""Se"": 4.0, ""H"": 3.0}",1404.346,#FFFFFF,tetragonal,{47},1998.0
Fayalite,Fe2+2(SiO4),"{""Fe"": 2.0, ""Si"": 1.0, ""O"": 4.0}",203.771,#8B4513,orthorhombic,"{6,19,23,34,40,57}",1678.0
Fedorovskite,Ca2Mg2B4O7(OH)6,"{""Ca"": 2.0, ""Mg"": 2.0, ""B"": 4.0, ""O"": 13.0, ""H"": 6.0}",386.041,#FFFFFF,orthorhombic,{31},356.0
Fedotovite,K2Cu3O(SO4)3,"{""K"": 2.0, ""Cu"": 3.0, ""O"": 13.0, ""S"": 3.0}",573.001,#FFFFFF,monoclinic,{45},424.0
Fehrite,MgCu4(SO4)2(OH)6·6H2O,"{""Mg"": 1.0, ""Cu"": 4.0, ""S"": 2.0, ""O"": 20.0, ""H"": 18.0}",680.733,#FFFFFF,monoclinic,{47},1998.0
Feiite,Fe2+2(Fe2+Ti4+)O5,"{""Fe"": 3.0, ""Ti"": 1.0, ""O"": 5.0}",295.397,#8B4513,orthorhombic,{6},205.0
Felbertalite,Cu2Pb6Bi8S19,"{""Cu"": 2.0, ""Pb"": 6.0, ""Bi"": 8.0, ""S"": 19.0}",3651.272,#708090,monoclinic,"{31,33}",1153.0
Felsobanyaite,Al4(SO4)(OH)10·4H2O,"{""Al"": 4.0, ""S"": 1.0, ""O"": 18.0, ""H"": 18.0}",446.114,#FFFFFF,monoclinic,{47},1998.0
Fenaksite,KNaFe2+Si4O10,"{""K"": 1.0, ""Na"": 1.0, ""Fe"": 1.0, ""Si"": 4.0, ""O"": 10.0}",390.263,#556B2F,triclinic,{35},726.0
Fencooperite,Ba6Fe3+3Si8O23(CO3)2Cl3·H2O,"{""Ba"": 6.0, ""Fe"": 3.0, ""Si"": 8.0, ""O"": 30.0, ""C"": 2.0, ""Cl"": 3.0, ""H"": 2.0}",1828.553,#556B2F,hexagonal,{23},398.0
Fengruiite,[Ag6Sb2S7][Ag9CuS2Te2],"{""Ag"": 15.0, ""Sb"": 2.0, ""S"": 9.0, ""Cu"": 1.0, ""Te"": 2.0}",2468.856,#A9A9A9,hexagonal,{},1.0
Feodosiyite,Cu11Mg2Cl18(OH)8·16H2O,"{""Cu"": 11.0, ""Mg"": 2.0, ""Cl"": 18.0, ""O"": 24.0, ""H"": 40.0}",1810.012,#FFFFFF,monoclinic,{47},1998.0
Ferberite,Fe2+(WO4),"{""Fe"": 1.0, ""W"": 1.0, ""O"": 4.0}",303.681,#8B4513,monoclinic,"{26,31,34}",1170.0
Ferdowsiite,Ag8(Sb5As3)S16,"{""Ag"": 8.0, ""Sb"": 5.0, ""As"": 3.0, ""S"": 16.0}",2209.486,#FFD700,monoclinic,{33},797.0
Fergusonite-(Y),YNbO4,"{""Y"": 1.0, ""Nb"": 1.0, ""O"": 4.0}",245.808,#FFFFFF,tetragonal,"{26,34}",814.0
Fermiite,Na4(UO2)(SO4)3·3H2O,"{""Na"": 4.0, ""U"": 1.0, ""O"": 17.0, ""S"": 3.0, ""H"": 6.0}",704.201,#FFFFFF,orthorhombic,"{47,55}",2262.0
Feroxyhyte,Fe3+O(OH),"{""Fe"": 1.0, ""O"": 2.0, ""H"": 1.0}",88.851,#8B4513,hexagonal,"{17,24,42,47,48}",2209.0
Ferrarisite,Ca5(AsO3OH)2(AsO4)2·9H2O,"{""Ca"": 5.0, ""As"": 4.0, ""O"": 25.0, ""H"": 20.0}",920.213,#FFFFFF,triclinic,"{47,55}",2262.0
Ferriallanite-(Ce),CaCe(Fe3+AlFe2+)[Si2O7][SiO4]O(OH),"{""Ca"": 1.0, ""Ce"": 1.0, ""Fe"": 2.0, ""Al"": 1.0, ""Si"": 3.0, ""O"": 13.0, ""H"": 1.0}",612.12,#556B2F,monoclinic,"{8,19,34,35}",1526.0
Ferriallanite-(La),CaLa(Fe3+AlFe2+)[Si2O7][SiO4]O(OH),"{""Ca"": 1.0, ""La"": 1.0, ""Fe"": 2.0, ""Al"": 1.0, ""Si"": 3.0, ""O"": 13.0, ""H"": 1.0}",610.91,#556B2F,monoclinic,"{8,19,34,35}",1526.0
Ferribushmakinite,Pb2Fe3+(PO4)(VO4)(OH),"{""Pb"": 2.0, ""Fe"": 1.0, ""P"": 1.0, ""O"": 9.0, ""V"": 1.0, ""H"": 1.0}",697.16,#556B2F,monoclinic,{32},412.0
Ferri-fluoro-katophorite,Na(NaCa)(Mg4Fe3+)(Si7Al)O22F2,"{""Na"": 2.0, ""Ca"": 1.0, ""Mg"": 4.0, ""Fe"": 1.0, ""Si"": 7.0, ""Al"": 1.0, ""O"": 22.0, ""F"": 2.0}",852.674,#556B2F,monoclinic,"{8,40}",412.0
Ferri-fluoro-leakeite,NaNa2(Mg2Fe3+2Li)Si8O22F2,"{""Na"": 3.0, ""Mg"": 2.0, ""Fe"": 2.0, ""Li"": 1.0, ""Si"": 8.0, ""O"": 22.0, ""F"": 2.0}",850.864,#556B2F,monoclinic,{35},726.0
Ferrihydrite,Fe3+5O7(OH),"{""Fe"": 5.0, ""O"": 8.0, ""H"": 1.0}",408.225,#8B4513,hexagonal,"{6,14,26,42,47,48,49,55}",2941.0
Ferri-kaersutite,NaCa2(Mg3Fe3+Ti)(Si6Al2)O22O2,"{""Na"": 1.0, ""Ca"": 2.0, ""Mg"": 3.0, ""Fe"": 1.0, ""Ti"": 1.0, ""Si"": 6.0, ""Al"": 2.0, ""O"": 24.0}",886.223,#556B2F,monoclinic,"{35,40}",1045.0
Ferri-katophorite,Na(NaCa)(Mg4Fe3+)(Si7Al)O22(OH)2,"{""Na"": 2.0, ""Ca"": 1.0, ""Mg"": 4.0, ""Fe"": 1.0, ""Si"": 7.0, ""Al"": 1.0, ""O"": 24.0, ""H"": 2.0}",848.692,#556B2F,monoclinic,{35},726.0
Ferri-leakeite,NaNa2(Mg2Fe3+2Li)Si8O22(OH)2,"{""Na"": 3.0, ""Mg"": 2.0, ""Fe"": 2.0, ""Li"": 1.0, ""Si"": 8.0, ""O"": 24.0, ""H"": 2.0}",846.882,#556B2F,monoclinic,{32},412.0
Ferrimolybdite,Fe3+2(Mo6+O4)3·7H2O,"{""Fe"": 2.0, ""Mo"": 3.0, ""O"": 19.0, ""H"": 14.0}",717.633,#556B2F,unknown,{47},1998.0
Ferrimuirite,Ba10(Ca2Fe3+2)[Si8O24]O2Cl10,"{""Ba"": 10.0, ""Ca"": 2.0, ""Fe"": 2.0, ""Si"": 8.0, ""O"": 26.0, ""Cl"": 10.0}",2560.3,#556B2F,tetragonal,{},1.0
Ferrinatrite,Na3Fe3+(SO4)3·3H2O,"{""Na"": 3.0, ""Fe"": 1.0, ""S"": 3.0, ""O"": 15.0, ""H"": 6.0}",467.028,#556B2F,hexagonal,"{45,47}",2422.0
Ferri-obertiite,NaNa2(Mg3Fe3+Ti)Si8O22O2,"{""Na"": 3.0, ""Mg"": 3.0, ""Fe"": 1.0, ""Ti"": 1.0, ""Si"": 8.0, ""O"": 24.0}",854.253,#556B2F,monoclinic,{10},107.0
Ferri-pedrizite,NaLi2(Mg2Fe3+2Li)Si8O22(OH)2,"{""Na"": 1.0, ""Li"": 3.0, ""Mg"": 2.0, ""Fe"": 2.0, ""Si"": 8.0, ""O"": 24.0, ""H"": 2.0}",814.782,#556B2F,monoclinic,"{22,34}",811.0
Ferriperboeite-(Ce),(CaCe3)(Fe3+Al2Fe2+)(Si2O7)(SiO4)3O(OH)2,"{""Ca"": 1.0, ""Ce"": 3.0, ""Fe"": 2.0, ""Al"": 2.0, ""Si"": 5.0, ""O"": 22.0, ""H"": 2.0}",1120.511,#556B2F,monoclinic,{34},564.0
Ferriperboeite-(La),(CaLa3)(Fe3+Al2Fe2+)[Si2O7][SiO4]3O(OH)2,"{""Ca"": 1.0, ""La"": 3.0, ""Fe"": 2.0, ""Al"": 2.0, ""Si"": 5.0, ""O"": 22.0, ""H"": 2.0}",1116.881,#556B2F,monoclinic,{34},564.0
Ferriphoxite,[(NH4)2K(H2O)][Fe3+(HPO4)2(C2O4)],"{""N"": 2.0, ""H"": 12.0, ""K"": 1.0, ""O"": 13.0, ""Fe"": 1.0, ""P"": 2.0, ""C"": 2.0}",429.01,#556B2F,monoclinic,{},1.0
Ferriprehnite,Ca2Fe3+(AlSi3)O10(OH)2,"{""Ca"": 2.0, ""Fe"": 1.0, ""Al"": 1.0, ""Si"": 3.0, ""O"": 12.0, ""H"": 2.0}",441.242,#556B2F,orthorhombic,{10},107.0
Ferripyrophyllite,Fe3+Si2O5(OH),"{""Fe"": 1.0, ""Si"": 2.0, ""O"": 6.0, ""H"": 1.0}",209.017,#556B2F,monoclinic,"{17,47}",2049.0
Ferrisanidine,K(Fe3+Si3O8),"{""K"": 1.0, ""Fe"": 1.0, ""Si"": 3.0, ""O"": 8.0}",307.19,#556B2F,monoclinic,"{35,45}",1150.0
Ferristrunzite,Fe3+Fe3+2(PO4)2(OH)3·5H2O,"{""Fe"": 3.0, ""P"": 2.0, ""O"": 16.0, ""H"": 13.0}",498.571,#556B2F,triclinic,{47},1998.0
Ferrisymplesite,Fe3+3(AsO4)2(OH)3·5H2O,"{""Fe"": 3.0, ""As"": 2.0, ""O"": 16.0, ""H"": 13.0}",586.467,#556B2F,unknown,{47},1998.0
Ferri-taramite,Na(NaCa)(Mg3Fe3+2)(Si6Al2)O22(OH)2,"{""Na"": 2.0, ""Ca"": 1.0, ""Mg"": 3.0, ""Fe"": 2.0, ""Si"": 6.0, ""Al"": 2.0, ""O"": 24.0, ""H"": 2.0}",879.129,#556B2F,monoclinic,{31},356.0
Ferrivauxite,Fe3+Al2(PO4)2(OH)3·5H2O,"{""Fe"": 1.0, ""Al"": 2.0, ""P"": 2.0, ""O"": 16.0, ""H"": 13.0}",440.845,#556B2F,triclinic,{47},1998.0
Ferroakermanite,Ca2FeSi2O7,"{""Ca"": 2.0, ""Fe"": 1.0, ""Si"": 2.0, ""O"": 7.0}",304.164,#556B2F,tetragonal,{},1.0
Ferroalluaudite,NaFe2+Fe3+2(PO4)3,"{""Na"": 1.0, ""Fe"": 3.0, ""P"": 3.0, ""O"": 12.0}",475.435,#556B2F,monoclinic,"{31,34}",920.0
Ferroaluminoceladonite,KFe2+AlSi4O10(OH)2,"{""K"": 1.0, ""Fe"": 1.0, ""Al"": 1.0, ""Si"": 4.0, ""O"": 12.0, ""H"": 2.0}",428.269,#556B2F,monoclinic,"{16,22,47}",2328.0
Ferroberaunite,Fe2+Fe3+5(PO4)4(OH)5·6H2O,"{""Fe"": 6.0, ""P"": 4.0, ""O"": 27.0, ""H"": 17.0}",908.075,#556B2F,monoclinic,{47},1998.0
Ferro-bosiite,NaFe3+3(Al4Fe2+2)(Si6O18)(BO3)3(OH)3O,"{""Na"": 1.0, ""Fe"": 5.0, ""Al"": 4.0, ""Si"": 6.0, ""O"": 31.0, ""B"": 3.0, ""H"": 3.0}",1110.076,#556B2F,hexagonal,{},1.0
Ferrobustamite,CaFe2+Si2O6,"{""Ca"": 1.0, ""Fe"": 1.0, ""Si"": 2.0, ""O"": 6.0}",248.087,#556B2F,triclinic,{31},356.0
Ferrocarpholite,Fe2+Al2Si2O6(OH)4,"{""Fe"": 1.0, ""Al"": 2.0, ""Si"": 2.0, ""O"": 10.0, ""H"": 4.0}",330.001,#556B2F,orthorhombic,{39},70.0
Ferroceladonite,KFe2+Fe3+Si4O10(OH)2,"{""K"": 1.0, ""Fe"": 2.0, ""Si"": 4.0, ""O"": 12.0, ""H"": 2.0}",457.132,#556B2F,monoclinic,"{16,22,47}",2328.0
Ferrodimolybdenite,FeMo2S4,"{""Fe"": 1.0, ""Mo"": 2.0, ""S"": 4.0}",375.985,#DAA520,monoclinic,{},1.0
Ferro-edenite,NaCa2Fe2+5(Si7Al)O22(OH)2,"{""Na"": 1.0, ""Ca"": 2.0, ""Fe"": 5.0, ""Si"": 7.0, ""Al"": 1.0, ""O"": 24.0, ""H"": 2.0}",991.94,#556B2F,monoclinic,"{8,19,20,26,34,35,37,40}",2275.0
Ferroefremovite,(NH4)2Fe2+2(SO4)3,"{""N"": 2.0, ""H"": 8.0, ""Fe"": 2.0, ""S"": 3.0, ""O"": 12.0}",435.936,#556B2F,cubic,{45},424.0
Ferroericssonite,BaFe2+2Fe3+(Si2O7)O(OH),"{""Ba"": 1.0, ""Fe"": 3.0, ""Si"": 2.0, ""O"": 9.0, ""H"": 1.0}",506.034,#556B2F,monoclinic,{32},412.0
Ferro-ferri-fluoro-leakeite,NaNa2(Fe2+2Fe3+2Li)Si8O22F2,"{""Na"": 3.0, ""Fe"": 4.0, ""Li"": 1.0, ""Si"": 8.0, ""O"": 22.0, ""F"": 2.0}",913.944,#556B2F,monoclinic,"{22,35}",973.0