name,formula,elements,density,color,crystal_system,dna
Hanksite,KNa22(SO4)9(CO3)2Cl,"{""K"": 1.0, ""Na"": 22.0, ""S"": 9.0, ""O"": 42.0, ""C"": 2.0, ""Cl"": 1.0}",1564.89,#FFFFFF,hexagonal,"{""system"": ""hexagonal"", ""scale"": [1.0, 1.0, 1.6], ""optical"": {""transparent"": 1, ""refraction"": 1.5, ""birefringence"": 0.01}}"
Hannayite,(NH4)2Mg3(PO3OH)4·8H2O,"{""N"": 2.0, ""H"": 28.0, ""Mg"": 3.0, ""P"": 4.0, ""O"": 24.0}",637.05,#FFFFFF,triclinic,"{""system"": ""triclinic"", ""scale"": [0.7, 1.0, 1.3], ""optical"": {""transparent"": 1, ""refraction"": 1.5, ""birefringence"": 0.01}}"
Hanswilkeite,KFeS2,"{""K"": 1.0, ""Fe"": 1.0, ""S"": 2.0}",159.07,#DAA520,monoclinic,"{""system"": ""monoclinic"", ""scale"": [0.7, 1.0, 1.3], ""optical"": {""transparent"": 0, ""refraction"": 0.0, ""birefringence"": 0.0}}"
Hapkeite,Fe2Si,"{""Fe"": 2.0, ""Si"": 1.0}",139.79,#8B4513,cubic,"{""system"": ""cubic"", ""scale"": [1.0, 1.0, 1.0], ""optical"": {""transparent"": 0, ""refraction"": 0.0, ""birefringence"": 0.0}}"
Haradaite,SrV4+Si2O7,"{""Sr"": 1.0, ""V"": 1.0, ""Si"": 2.0, ""O"": 7.0}",306.74,#FFFFFF,orthorhombic,"{""system"": ""orthorhombic"", ""scale"": [0.8, 1.0, 1.2], ""optical"": {""transparent"": 1, ""refraction"": 1.5, ""birefringence"": 0.01}}"
Harmotome,Ba2(Si12Al4)O32·12H2O,"{""Ba"": 2.0, ""Si"": 12.0, ""Al"": 4.0, ""O"": 44.0, ""H"": 24.0}",1447.85,#FFFFFF,monoclinic,"{""system"": ""monoclinic"", ""scale"": [0.7, 1.0, 1.3], ""optical"": {""transparent"": 1, ""refraction"": 1.5, ""birefringence"": 0.01}}"
Harmunite,CaFe2O4,"{""Ca"": 1.0, ""Fe"": 2.0, ""O"": 4.0}",215.78,#8B4513,orthorhombic,"{""system"": ""orthorhombic"", ""scale"": [0.8, 1.0, 1.2], ""optical"": {""transparent"": 0, ""refraction"": 0.0, ""birefringence"": 0.0}}"
Harrisonite,CaFe2+6(SiO4)2(PO4)2,"{""Ca"": 1.0, ""Fe"": 6.0, ""Si"": 2.0, ""O"": 16.0, ""P"": 2.0}",749.3,#556B2F,hexagonal,"{""system"": ""hexagonal"", ""scale"": [1.0, 1.0, 1.6], ""optical"": {""transparent"": 0, ""refraction"": 0.0, ""birefringence"": 0.0}}"
Hasanovite,KNa(MoO2)(SO4)2,"{""K"": 1.0, ""Na"": 1.0, ""Mo"": 1.0, ""O"": 10.0, ""S"": 2.0}",382.16,#FFFFFF,monoclinic,"{""system"": ""monoclinic"", ""scale"": [0.7, 1.0, 1.3], ""optical"": {""transparent"": 1, ""refraction"": 1.5, ""birefringence"": 0.01}}"
Hashemite,Ba(CrO4),"{""Ba"": 1.0, ""Cr"": 1.0, ""O"": 4.0}",253.33,#228B22,orthorhombic,"{""system"": ""orthorhombic"", ""scale"": [0.8, 1.0, 1.2], ""optical"": {""transparent"": 0, ""refraction"": 0.0, ""birefringence"": 0.0}}"
Hastingsite,NaCa2(Fe2+4Fe3+)(Si6Al2)O22(OH)2,"{""Na"": 1.0, ""Ca"": 2.0, ""Fe"": 5.0, ""Si"": 6.0, ""Al"": 2.0, ""O"": 24.0, ""H"": 2.0}",990.92,#556B2F,monoclinic,"{""system"": ""monoclinic"", ""scale"": [0.7, 1.0, 1.3], ""optical"": {""transparent"": 0, ""refraction"": 0.0, ""birefringence"": 0.0}}"
Hatchite,AgTlPbAs2S5,"{""Ag"": 1.0, ""Tl"": 1.0, ""Pb"": 1.0, ""As"": 2.0, ""S"": 5.0}",829.59,#708090,triclinic,"{""system"": ""triclinic"", ""scale"": [0.7, 1.0, 1.3], ""optical"": {""transparent"": 0, ""refraction"": 0.0, ""birefringence"": 0.0}}"
Hatertite,NaNaCa(Cu2+Fe3+)(AsO4)3,"{""Na"": 2.0, ""Ca"": 1.0, ""Cu"": 1.0, ""Fe"": 1.0, ""As"": 3.0, ""O"": 12.0}",622.22,#556B2F,monoclinic,"{""system"": ""monoclinic"", ""scale"": [0.7, 1.0, 1.3], ""optical"": {""transparent"": 0, ""refraction"": 0.0, ""birefringence"": 0.0}}"
Hatrurite,Ca3SiO5,"{""Ca"": 3.0, ""Si"": 1.0, ""O"": 5.0}",228.33,#FFFFFF,hexagonal,"{""system"": ""hexagonal"", ""scale"": [1.0, 1.0, 1.6], ""optical"": {""transparent"": 1, ""refraction"": 1.5, ""birefringence"": 0.01}}"
Hauchecornite,Ni9BiSbS8,"{""Ni"": 9.0, ""Bi"": 1.0, ""Sb"": 1.0, ""S"": 8.0}",1115.43,#A9A9A9,tetragonal,"{""system"": ""tetragonal"", ""scale"": [1.0, 1.0, 1.4], ""optical"": {""transparent"": 0, ""refraction"": 0.0, ""birefringence"": 0.0}}"
Hauyne,Na3Ca(Si3Al3)O12(SO4),"{""Na"": 3.0, ""Ca"": 1.0, ""Si"": 3.0, ""Al"": 3.0, ""O"": 16.0, ""S"": 1.0}",562.32,#FFFFFF,cubic,"{""system"": ""cubic"", ""scale"": [1.0, 1.0, 1.0], ""optical"": {""transparent"": 1, ""refraction"": 1.5, ""birefringence"": 0.0}}"
Hawleyite,CdS,"{""Cd"": 1.0, ""S"": 1.0}",144.47,#A9A9A9,cubic,"{""system"": ""cubic"", ""scale"": [1.0, 1.0, 1.0], ""optical"": {""transparent"": 0, ""refraction"": 0.0, ""birefringence"": 0.0}}"
Hawthorneite,BaMgTi3Cr4Fe2+2Fe3+2O19,"{""Ba"": 1.0, ""Mg"": 1.0, ""Ti"": 3.0, ""Cr"": 4.0, ""Fe"": 4.0, ""O"": 19.0}",1040.65,#556B2F,hexagonal,"{""system"": ""hexagonal"", ""scale"": [1.0, 1.0, 1.6], ""optical"": {""transparent"": 0, ""refraction"": 0.0, ""birefringence"": 0.0}}"
Haycockite,Cu4Fe5S8,"{""Cu"": 4.0, ""Fe"": 5.0, ""S"": 8.0}",789.93,#DAA520,orthorhombic,"{""system"": ""orthorhombic"", ""scale"": [0.8, 1.0, 1.2], ""optical"": {""transparent"": 0, ""refraction"": 0.0, ""birefringence"": 0.0}}"
Haydeeite,Cu3Mg(OH)6Cl2,"{""Cu"": 3.0, ""Mg"": 1.0, ""O"": 6.0, ""H"": 6.0, ""Cl"": 2.0}",387.91,#FFFFFF,hexagonal,"{""system"": ""hexagonal"", ""scale"": [1.0, 1.0, 1.6], ""optical"": {""transparent"": 1, ""refraction"": 1.5, ""birefringence"": 0.01}}"
Haynesite,(UO2)3(Se4+O3)2(OH)2·5H2O,"{""U"": 3.0, ""O"": 19.0, ""Se"": 2.0, ""H"": 12.0}",1188.11,#FFFFFF,orthorhombic,"{""system"": ""orthorhombic"", ""scale"": [0.8, 1.0, 1.2], ""optical"": {""transparent"": 1, ""refraction"": 1.5, ""birefringence"": 0.01}}"
Hayyanite,Cu5Ag11Pb76Sb71As17(As2+)8S224,"{""Cu"": 5.0, ""Ag"": 11.0, ""Pb"": 76.0, ""Sb"": 71.0, ""As"": 25.0, ""S"": 224.0}",34950.92,#708090,monoclinic,"{""system"": ""monoclinic"", ""scale"": [0.7, 1.0, 1.3], ""optical"": {""transparent"": 0, ""refraction"": 0.0, ""birefringence"": 0.0}}"
Hazenite,KNaMg2(PO4)2·14H2O,"{""K"": 1.0, ""Na"": 1.0, ""Mg"": 2.0, ""P"": 2.0, ""O"": 22.0, ""H"": 28.0}",552.87,#FFFFFF,orthorhombic,"{""system"": ""orthorhombic"", ""scale"": [0.8, 1.0, 1.2], ""optical"": {""transparent"": 1, ""refraction"": 1.5, ""birefringence"": 0.01}}"
Heazlewoodite,Ni3S2,"{""Ni"": 3.0, ""S"": 2.0}",240.19,#A9A9A9,hexagonal,"{""system"": ""hexagonal"", ""scale"": [1.0, 1.0, 1.6], ""optical"": {""transparent"": 0, ""refraction"": 0.0, ""birefringence"": 0.0}}"
Hechtsbergite,Bi2O(VO4)(OH),"{""Bi"": 2.0, ""O"": 6.0, ""V"": 1.0, ""H"": 1.0}",565.91,#FFFFFF,monoclinic,"{""system"": ""monoclinic"", ""scale"": [0.7, 1.0, 1.3], ""optical"": {""transparent"": 1, ""refraction"": 1.5, ""birefringence"": 0.01}}"
Hectorfloresite,Na9(IO3)(SO4)4,"{""Na"": 9.0, ""I"": 1.0, ""O"": 19.0, ""S"": 4.0}",766.05,#FFFFFF,monoclinic,"{""system"": ""monoclinic"", ""scale"": [0.7, 1.0, 1.3], ""optical"": {""transparent"": 1, ""refraction"": 1.5, ""birefringence"": 0.01}}"
Hedenbergite,CaFe2+Si2O6,"{""Ca"": 1.0, ""Fe"": 1.0, ""Si"": 2.0, ""O"": 6.0}",248.11,#556B2F,monoclinic,"{""system"": ""monoclinic"", ""scale"": [0.7, 1.0, 1.3], ""optical"": {""transparent"": 0, ""refraction"": 0.0, ""birefringence"": 0.0}}"
Hedleyite,Bi7Te3,"{""Bi"": 7.0, ""Te"": 3.0}",1845.66,#D2B48C,hexagonal,"{""system"": ""hexagonal"", ""scale"": [1.0, 1.0, 1.6], ""optical"": {""transparent"": 0, ""refraction"": 0.0, ""birefringence"": 0.0}}"
Hedyphane,Ca2Pb3(AsO4)3Cl,"{""Ca"": 2.0, ""Pb"": 3.0, ""As"": 3.0, ""O"": 12.0, ""Cl"": 1.0}",1153.97,#FFFFFF,hexagonal,"{""system"": ""hexagonal"", ""scale"": [1.0, 1.0, 1.6], ""optical"": {""transparent"": 1, ""refraction"": 1.5, ""birefringence"": 0.01}}"
Heflikite,Ca2(Al2Sc)(Si2O7)(SiO4)O(OH),"{""Ca"": 2.0, ""Al"": 2.0, ""Sc"": 1.0, ""Si"": 3.0, ""O"": 13.0, ""H"": 1.0}",472.36,#FFFFFF,monoclinic,"{""system"": ""monoclinic"", ""scale"": [0.7, 1.0, 1.3], ""optical"": {""transparent"": 1, ""refraction"": 1.5, ""birefringence"": 0.01}}"
Heftetjernite,ScTaO4,"{""Sc"": 1.0, ""Ta"": 1.0, ""O"": 4.0}",289.91,#FFFFFF,monoclinic,"{""system"": ""monoclinic"", ""scale"": [0.7, 1.0, 1.3], ""optical"": {""transparent"": 1, ""refraction"": 1.5, ""birefringence"": 0.01}}"
Heidornite,Na2Ca3B5O8(SO4)2(OH)2Cl,"{""Na"": 2.0, ""Ca"": 3.0, ""B"": 5.0, ""O"": 18.0, ""S"": 2.0, ""H"": 2.0, ""Cl"": 1.0}",609.86,#FFFFFF,monoclinic,"{""system"": ""monoclinic"", ""scale"": [0.7, 1.0, 1.3], ""optical"": {""transparent"": 1, ""refraction"": 1.5, ""birefringence"": 0.01}}"
Heimaeyite,Na3Al(SO4)3,"{""Na"": 3.0, ""Al"": 1.0, ""S"": 3.0, ""O"": 12.0}",384.13,#FFFFFF,hexagonal,"{""system"": ""hexagonal"", ""scale"": [1.0, 1.0, 1.6], ""optical"": {""transparent"": 1, ""refraction"": 1.5, ""birefringence"": 0.01}}"
Heimite,PbCu2(AsO4)(OH)3·2H2O,"{""Pb"": 1.0, ""Cu"": 2.0, ""As"": 1.0, ""O"": 9.0, ""H"": 7.0}",560.28,#FFFFFF,monoclinic,"{""system"": ""monoclinic"", ""scale"": [0.7, 1.0, 1.3], ""optical"": {""transparent"": 1, ""refraction"": 1.5, ""birefringence"": 0.01}}"
Heinrichite,Ba(UO2)2(AsO4)2·10H2O,"{""Ba"": 1.0, ""U"": 2.0, ""O"": 22.0, ""As"": 2.0, ""H"": 20.0}",1135.39,#FFFFFF,monoclinic,"{""system"": ""monoclinic"", ""scale"": [0.7, 1.0, 1.3], ""optical"": {""transparent"": 1, ""refraction"": 1.5, ""birefringence"": 0.01}}"
Heisenbergite,(UO2)(OH)2·H2O,"{""U"": 1.0, ""O"": 5.0, ""H"": 4.0}",322.06,#ADFF2F,orthorhombic,"{""system"": ""orthorhombic"", ""scale"": [0.8, 1.0, 1.2], ""optical"": {""transparent"": 0, ""refraction"": 0.0, ""birefringence"": 0.0}}"
Heklaite,KNaSiF6,"{""K"": 1.0, ""Na"": 1.0, ""Si"": 1.0, ""F"": 6.0}",204.18,#FFFFFF,orthorhombic,"{""system"": ""orthorhombic"", ""scale"": [0.8, 1.0, 1.2], ""optical"": {""transparent"": 1, ""refraction"": 1.5, ""birefringence"": 0.01}}"
Hellyerite,Ni(CO3)·6H2O,"{""Ni"": 1.0, ""C"": 1.0, ""O"": 9.0, ""H"": 12.0}",226.8,#FFFFFF,,"{""system"": """", ""scale"": [1.0, 1.0, 1.0], ""optical"": {""transparent"": 1, ""refraction"": 1.5, ""birefringence"": 0.01}}"
Hematite,Fe2O3,"{""Fe"": 2.0, ""O"": 3.0}",159.7,#8B4513,hexagonal,"{""system"": ""hexagonal"", ""scale"": [1.0, 1.0, 1.6], ""optical"": {""transparent"": 0, ""refraction"": 0.0, ""birefringence"": 0.0}}"
Hemleyite,FeSiO3,"{""Fe"": 1.0, ""Si"": 1.0, ""O"": 3.0}",131.94,#8B4513,hexagonal,"{""system"": ""hexagonal"", ""scale"": [1.0, 1.0, 1.6], ""optical"": {""transparent"": 0, ""refraction"": 0.0, ""birefringence"": 0.0}}"
Hendekasartorite,Tl2Pb48As82S172,"{""Tl"": 2.0, ""Pb"": 48.0, ""As"": 82.0, ""S"": 172.0}",22012.12,#708090,monoclinic,"{""system"": ""monoclinic"", ""scale"": [0.7, 1.0, 1.3], ""optical"": {""transparent"": 0, ""refraction"": 0.0, ""birefringence"": 0.0}}"
Heneuite,CaMg5(PO4)3(CO3)(OH),"{""Ca"": 1.0, ""Mg"": 5.0, ""P"": 3.0, ""O"": 16.0, ""C"": 1.0, ""H"": 1.0}",523.56,#FFFFFF,triclinic,"{""system"": ""triclinic"", ""scale"": [0.7, 1.0, 1.3], ""optical"": {""transparent"": 1, ""refraction"": 1.5, ""birefringence"": 0.01}}"
Henmilite,Ca2Cu[B(OH)4]2(OH)4,"{""Ca"": 2.0, ""Cu"": 1.0, ""B"": 2.0, ""O"": 12.0, ""H"": 12.0}",369.43,#FFFFFF,triclinic,"{""system"": ""triclinic"", ""scale"": [0.7, 1.0, 1.3], ""optical"": {""transparent"": 1, ""refraction"": 1.5, ""birefringence"": 0.01}}"
Henrymeyerite,Ba(Ti7Fe2+)O16,"{""Ba"": 1.0, ""Ti"": 7.0, ""Fe"": 1.0, ""O"": 16.0}",784.27,#556B2F,tetragonal,"{""system"": ""tetragonal"", ""scale"": [1.0, 1.0, 1.4], ""optical"": {""transparent"": 0, ""refraction"": 0.0, ""birefringence"": 0.0}}"
Henrysunite,Na2(C2H3O3)2(H2O),"{""Na"": 2.0, ""C"": 4.0, ""H"": 8.0, ""O"": 7.0}",214.08,#FFFFFF,orthorhombic,"{""system"": ""orthorhombic"", ""scale"": [0.8, 1.0, 1.2], ""optical"": {""transparent"": 1, ""refraction"": 1.5, ""birefringence"": 0.01}}"
Hentschelite,CuFe3+2(PO4)2(OH)2,"{""Cu"": 1.0, ""Fe"": 2.0, ""P"": 2.0, ""O"": 10.0, ""H"": 2.0}",399.21,#556B2F,monoclinic,"{""system"": ""monoclinic"", ""scale"": [0.7, 1.0, 1.3], ""optical"": {""transparent"": 0, ""refraction"": 0.0, ""birefringence"": 0.0}}"
Hephaistosite,TlPb2Cl5,"{""Tl"": 1.0, ""Pb"": 2.0, ""Cl"": 5.0}",796.03,#FFFFFF,monoclinic,"{""system"": ""monoclinic"", ""scale"": [0.7, 1.0, 1.3], ""optical"": {""transparent"": 1, ""refraction"": 1.5, ""birefringence"": 0.01}}"
Heptasartorite,Tl7Pb22As55S108,"{""Tl"": 7.0, ""Pb"": 22.0, ""As"": 55.0, ""S"": 108.0}",13572.14,#708090,monoclinic,"{""system"": ""monoclinic"", ""scale"": [0.7, 1.0, 1.3], ""optical"": {""transparent"": 0, ""refraction"": 0.0, ""birefringence"": 0.0}}"
Hercynite,Fe2+Al2O4,"{""Fe"": 1.0, ""Al"": 2.0, ""O"": 4.0}",173.81,#8B4513,cubic,"{""system"": ""cubic"", ""scale"": [1.0, 1.0, 1.0], ""optical"": {""transparent"": 0, ""refraction"": 0.0, ""birefringence"": 0.0}}"
Herderite,CaBe(PO4)F,"{""Ca"": 1.0, ""Be"": 1.0, ""P"": 1.0, ""O"": 4.0, ""F"": 1.0}",163.06,#FFFFFF,monoclinic,"{""system"": ""monoclinic"", ""scale"": [0.7, 1.0, 1.3], ""optical"": {""transparent"": 1, ""refraction"": 1.5, ""birefringence"": 0.01}}"
Hermannroseite,CaCu(PO4)(OH),"{""Ca"": 1.0, ""Cu"": 1.0, ""P"": 1.0, ""O"": 5.0, ""H"": 1.0}",215.61,#FFFFFF,orthorhombic,"{""system"": ""orthorhombic"", ""scale"": [0.8, 1.0, 1.2], ""optical"": {""transparent"": 1, ""refraction"": 1.5, ""birefringence"": 0.01}}"
Hessite,Ag2Te,"{""Ag"": 2.0, ""Te"": 1.0}",343.34,#C0C0C0,monoclinic,"{""system"": ""monoclinic"", ""scale"": [0.7, 1.0, 1.3], ""optical"": {""transparent"": 0, ""refraction"": 0.0, ""birefringence"": 0.0}}"
Heterogenite,Co3+O(OH),"{""Co"": 1.0, ""O"": 2.0, ""H"": 1.0}",91.94,#4169E1,hexagonal,"{""system"": ""hexagonal"", ""scale"": [1.0, 1.0, 1.6], ""optical"": {""transparent"": 0, ""refraction"": 0.0, ""birefringence"": 0.0}}"
Heteromorphite,Pb7Sb8S19,"{""Pb"": 7.0, ""Sb"": 8.0, ""S"": 19.0}",3033.62,#708090,monoclinic,"{""system"": ""monoclinic"", ""scale"": [0.7, 1.0, 1.3], ""optical"": {""transparent"": 0, ""refraction"": 0.0, ""birefringence"": 0.0}}"
Heterosite,Fe3+(PO4),"{""Fe"": 1.0, ""P"": 1.0, ""O"": 4.0}",150.82,#8B4513,orthorhombic,"{""system"": ""orthorhombic"", ""scale"": [0.8, 1.0, 1.2], ""optical"": {""transparent"": 0, ""refraction"": 0.0, ""birefringence"": 0.0}}"
Hewettite,CaV5+6O16·9H2O,"{""Ca"": 1.0, ""V"": 6.0, ""O"": 25.0, ""H"": 18.0}",763.86,#FFFFFF,monoclinic,"{""system"": ""monoclinic"", ""scale"": [0.7, 1.0, 1.3], ""optical"": {""transparent"": 1, ""refraction"": 1.5, ""birefringence"": 0.01}}"
Hexacelsian,Ba(Al2Si2O8),"{""Ba"": 1.0, ""Al"": 2.0, ""Si"": 2.0, ""O"": 8.0}",375.47,#FFFFFF,hexagonal,"{""system"": ""hexagonal"", ""scale"": [1.0, 1.0, 1.6], ""optical"": {""transparent"": 1, ""refraction"": 1.5, ""birefringence"": 0.01}}"
Hexahydrite,Mg(SO4)·6H2O,"{""Mg"": 1.0, ""S"": 1.0, ""O"": 10.0, ""H"": 12.0}",228.47,#FFFFFF,monoclinic,"{""system"": ""monoclinic"", ""scale"": [0.7, 1.0, 1.3], ""optical"": {""transparent"": 1, ""refraction"": 1.5, ""birefringence"": 0.01}}"
Hexahydroborite,Ca[B(OH)4]2·2H2O,"{""Ca"": 1.0, ""B"": 2.0, ""O"": 10.0, ""H"": 12.0}",233.8,#FFFFFF,monoclinic,"{""system"": ""monoclinic"", ""scale"": [0.7, 1.0, 1.3], ""optical"": {""transparent"": 1, ""refraction"": 1.5, ""birefringence"": 0.01}}"
Hexathioplumbite,[Pb4(OH)4]Pb(S2O3)3,"{""Pb"": 5.0, ""O"": 13.0, ""H"": 4.0, ""S"": 6.0}",1440.39,#FFFFFF,hexagonal,"{""system"": ""hexagonal"", ""scale"": [1.0, 1.0, 1.6], ""optical"": {""transparent"": 1, ""refraction"": 1.5, ""birefringence"": 0.01}}"
Heyite,Pb5Fe2+2O4(VO4)2,"{""Pb"": 5.0, ""Fe"": 2.0, ""O"": 12.0, ""V"": 2.0}",1441.58,#556B2F,monoclinic,"{""system"": ""monoclinic"", ""scale"": [0.7, 1.0, 1.3], ""optical"": {""transparent"": 0, ""refraction"": 0.0, ""birefringence"": 0.0}}"
Heyrovskyite,Pb6Bi2S9,"{""Pb"": 6.0, ""Bi"": 2.0, ""S"": 9.0}",1949.7,#708090,orthorhombic,"{""system"": ""orthorhombic"", ""scale"": [0.8, 1.0, 1.2], ""optical"": {""transparent"": 0, ""refraction"": 0.0, ""birefringence"": 0.0}}"
Hibbingite,Fe2+2(OH)3Cl,"{""Fe"": 2.0, ""O"": 3.0, ""H"": 3.0, ""Cl"": 1.0}",198.17,#556B2F,orthorhombic,"{""system"": ""orthorhombic"", ""scale"": [0.8, 1.0, 1.2], ""optical"": {""transparent"": 0, ""refraction"": 0.0, ""birefringence"": 0.0}}"
Hibonite,CaAl12O19,"{""Ca"": 1.0, ""Al"": 12.0, ""O"": 19.0}",667.84,#FFFFFF,hexagonal,"{""system"": ""hexagonal"", ""scale"": [1.0, 1.0, 1.6], ""optical"": {""transparent"": 1, ""refraction"": 1.5, ""birefringence"": 0.01}}"
Hidalgoite,PbAl3(SO4)(AsO4)(OH)6,"{""Pb"": 1.0, ""Al"": 3.0, ""S"": 1.0, ""O"": 14.0, ""As"": 1.0, ""H"": 6.0}",625.17,#FFFFFF,hexagonal,"{""system"": ""hexagonal"", ""scale"": [1.0, 1.0, 1.6], ""optical"": {""transparent"": 1, ""refraction"": 1.5, ""birefringence"": 0.01}}"
Hielscherite,Ca6Si2[(SO4)2(SO3)2(OH)12]·22H2O,"{""Ca"": 6.0, ""Si"": 2.0, ""S"": 4.0, ""O"": 48.0, ""H"": 56.0}",1249.35,#FFFFFF,hexagonal,"{""system"": ""hexagonal"", ""scale"": [1.0, 1.0, 1.6], ""optical"": {""transparent"": 1, ""refraction"": 1.5, ""birefringence"": 0.01}}"
Hieratite,K2SiF6,"{""K"": 2.0, ""Si"": 1.0, ""F"": 6.0}",220.29,#FFFFFF,cubic,"{""system"": ""cubic"", ""scale"": [1.0, 1.0, 1.0], ""optical"": {""transparent"": 1, ""refraction"": 1.5, ""birefringence"": 0.0}}"
Hilairite,Na2ZrSi3O9·3H2O,"{""Na"": 2.0, ""Zr"": 1.0, ""Si"": 3.0, ""O"": 12.0, ""H"": 6.0}",419.52,#FFFFFF,hexagonal,"{""system"": ""hexagonal"", ""scale"": [1.0, 1.0, 1.6], ""optical"": {""transparent"": 1, ""refraction"": 1.5, ""birefringence"": 0.01}}"
Hilarionite,Fe3+2(SO4)(AsO4)(OH)·6H2O,"{""Fe"": 2.0, ""S"": 1.0, ""O"": 15.0, ""As"": 1.0, ""H"": 13.0}",471.78,#556B2F,monoclinic,"{""system"": ""monoclinic"", ""scale"": [0.7, 1.0, 1.3], ""optical"": {""transparent"": 0, ""refraction"": 0.0, ""birefringence"": 0.0}}"
Hilgardite,Ca2B5O9Cl·H2O,"{""Ca"": 2.0, ""B"": 5.0, ""O"": 10.0, ""Cl"": 1.0, ""H"": 2.0}",331.68,#FFFFFF,monoclinic,"{""system"": ""monoclinic"", ""scale"": [0.7, 1.0, 1.3], ""optical"": {""transparent"": 1, ""refraction"": 1.5, ""birefringence"": 0.01}}"
Hillebrandite,Ca2SiO3(OH)2,"{""Ca"": 2.0, ""Si"": 1.0, ""O"": 5.0, ""H"": 2.0}",190.27,#FFFFFF,orthorhombic,"{""system"": ""orthorhombic"", ""scale"": [0.8, 1.0, 1.2], ""optical"": {""transparent"": 1, ""refraction"": 1.5, ""birefringence"": 0.01}}"
Hingganite-(Ce),BeCe(SiO4)(OH),"{""Be"": 1.0, ""Ce"": 1.0, ""Si"": 1.0, ""O"": 5.0, ""H"": 1.0}",258.23,#FFFFFF,monoclinic,"{""system"": ""monoclinic"", ""scale"": [0.7, 1.0, 1.3], ""optical"": {""transparent"": 1, ""refraction"": 1.5, ""birefringence"": 0.01}}"
Hingganite-(Y),BeY(SiO4)(OH),"{""Be"": 1.0, ""Y"": 1.0, ""Si"": 1.0, ""O"": 5.0, ""H"": 1.0}",207.02,#FFFFFF,monoclinic,"{""system"": ""monoclinic"", ""scale"": [0.7, 1.0, 1.3], ""optical"": {""transparent"": 1, ""refraction"": 1.5, ""birefringence"": 0.01}}"
Hingganite-(Yb),BeYb(SiO4)(OH),"{""Be"": 1.0, ""Yb"": 1.0, ""Si"": 1.0, ""O"": 5.0, ""H"": 1.0}",291.16,#FFFFFF,monoclinic,"{""system"": ""monoclinic"", ""scale"": [0.7, 1.0, 1.3], ""optical"": {""transparent"": 1, ""refraction"": 1.5, ""birefringence"": 0.01}}"
Hinsdalite,PbAl3(SO4)(PO4)(OH)6,"{""Pb"": 1.0, ""Al"": 3.0, ""S"": 1.0, ""O"": 14.0, ""P"": 1.0, ""H"": 6.0}",581.22,#FFFFFF,hexagonal,"{""system"": ""hexagonal"", ""scale"": [1.0, 1.0, 1.6], ""optical"": {""transparent"": 1, ""refraction"": 1.5, ""birefringence"": 0.01}}"
Hiroseite,FeSiO3,"{""Fe"": 1.0, ""Si"": 1.0, ""O"": 3.0}",131.94,#8B4513,orthorhombic,"{""system"": ""orthorhombic"", ""scale"": [0.8, 1.0, 1.2], ""optical"": {""transparent"": 0, ""refraction"": 0.0, ""birefringence"": 0.0}}"
Hisingerite,Fe2Si2O5(OH)4·2H2O,"{""Fe"": 2.0, ""Si"": 2.0, ""O"": 11.0, ""H"": 8.0}",351.94,#556B2F,,"{""system"": """", ""scale"": [1.0, 1.0, 1.0], ""optical"": {""transparent"": 0, ""refraction"": 0.0, ""birefringence"": 0.0}}"
Hitachiite,Pb5Bi2Te2S6,"{""Pb"": 5.0, ""Bi"": 2.0, ""Te"": 2.0, ""S"": 6.0}",1901.52,#708090,hexagonal,"{""system"": ""hexagonal"", ""scale"": [1.0, 1.0, 1.6], ""optical"": {""transparent"": 0, ""refraction"": 0.0, ""birefringence"": 0.0}}"
Hizenite-(Y),Ca2Y6(CO3)11·14H2O,"{""Ca"": 2.0, ""Y"": 6.0, ""C"": 11.0, ""O"": 47.0, ""H"": 28.0}",1525.95,#FFFFFF,orthorhombic,"{""system"": ""orthorhombic"", ""scale"": [0.8, 1.0, 1.2], ""optical"": {""transparent"": 1, ""refraction"": 1.5, ""birefringence"": 0.01}}"
Hochelagaite,CaNb4O11·8H2O,"{""Ca"": 1.0, ""Nb"": 4.0, ""O"": 19.0, ""H"": 16.0}",731.85,#FFFFFF,monoclinic,"{""system"": ""monoclinic"", ""scale"": [0.7, 1.0, 1.3], ""optical"": {""transparent"": 1, ""refraction"": 1.5, ""birefringence"": 0.01}}"