name,formula,elements,density,color,crystal_system,dna
Potassic-hastingsite,KCa2(Fe2+4Fe3+)(Si6Al2)O22(OH)2,"{""K"": 1.0, ""Ca"": 2.0, ""Fe"": 5.0, ""Si"": 6.0, ""Al"": 2.0, ""O"": 24.0, ""H"": 2.0}",1007.03,#556B2F,monoclinic,"{""system"": ""monoclinic"", ""scale"": [0.7, 1.0, 1.3], ""optical"": {""transparent"": 0, ""refraction"": 0.0, ""birefringence"": 0.0}}"
Potassic-jeanlouisite,K(NaCa)(Mg4Ti)Si8O22O2,"{""K"": 1.0, ""Na"": 1.0, ""Ca"": 1.0, ""Mg"": 4.0, ""Ti"": 1.0, ""Si"": 8.0, ""O"": 24.0}",856.0,#FFFFFF,monoclinic,"{""system"": ""monoclinic"", ""scale"": [0.7, 1.0, 1.3], ""optical"": {""transparent"": 1, ""refraction"": 1.5, ""birefringence"": 0.01}}"
Potassic-magnesio-arfvedsonite,KNa2(Mg4Fe3+)Si8O22(OH)2,"{""K"": 1.0, ""Na"": 2.0, ""Mg"": 4.0, ""Fe"": 1.0, ""Si"": 8.0, ""O"": 24.0, ""H"": 2.0}",848.91,#556B2F,monoclinic,"{""system"": ""monoclinic"", ""scale"": [0.7, 1.0, 1.3], ""optical"": {""transparent"": 0, ""refraction"": 0.0, ""birefringence"": 0.0}}"
Potassic-magnesio-fluoro-arfvedsonite,KNa2(Mg4Fe3+)Si8O22F2,"{""K"": 1.0, ""Na"": 2.0, ""Mg"": 4.0, ""Fe"": 1.0, ""Si"": 8.0, ""O"": 22.0, ""F"": 2.0}",852.89,#556B2F,monoclinic,"{""system"": ""monoclinic"", ""scale"": [0.7, 1.0, 1.3], ""optical"": {""transparent"": 0, ""refraction"": 0.0, ""birefringence"": 0.0}}"
Potassic-magnesio-hastingsite,KCa2(Mg4Fe3+)(Si6Al2)O22(OH)2,"{""K"": 1.0, ""Ca"": 2.0, ""Mg"": 4.0, ""Fe"": 1.0, ""Si"": 6.0, ""Al"": 2.0, ""O"": 24.0, ""H"": 2.0}",880.87,#556B2F,monoclinic,"{""system"": ""monoclinic"", ""scale"": [0.7, 1.0, 1.3], ""optical"": {""transparent"": 0, ""refraction"": 0.0, ""birefringence"": 0.0}}"
Potassic-pargasite,KCa2(Mg4Al)(Si6Al2)O22(OH)2,"{""K"": 1.0, ""Ca"": 2.0, ""Mg"": 4.0, ""Al"": 3.0, ""Si"": 6.0, ""O"": 24.0, ""H"": 2.0}",852.0,#FFFFFF,monoclinic,"{""system"": ""monoclinic"", ""scale"": [0.7, 1.0, 1.3], ""optical"": {""transparent"": 1, ""refraction"": 1.5, ""birefringence"": 0.01}}"
Potassic-richterite,K(NaCa)Mg5Si8O22(OH)2,"{""K"": 1.0, ""Na"": 1.0, ""Ca"": 1.0, ""Mg"": 5.0, ""Si"": 8.0, ""O"": 24.0, ""H"": 2.0}",834.46,#FFFFFF,monoclinic,"{""system"": ""monoclinic"", ""scale"": [0.7, 1.0, 1.3], ""optical"": {""transparent"": 1, ""refraction"": 1.5, ""birefringence"": 0.01}}"
Potassic-sadanagaite,KCa2(Mg3Al2)(Si5Al3)O22(OH)2,"{""K"": 1.0, ""Ca"": 2.0, ""Mg"": 3.0, ""Al"": 5.0, ""Si"": 5.0, ""O"": 24.0, ""H"": 2.0}",853.56,#FFFFFF,monoclinic,"{""system"": ""monoclinic"", ""scale"": [0.7, 1.0, 1.3], ""optical"": {""transparent"": 1, ""refraction"": 1.5, ""birefringence"": 0.01}}"
Pottsite,(Pb3Bi)Bi(VO4)4·H2O,"{""Pb"": 3.0, ""Bi"": 2.0, ""V"": 4.0, ""O"": 17.0, ""H"": 2.0}",1517.34,#FFFFFF,tetragonal,"{""system"": ""tetragonal"", ""scale"": [1.0, 1.0, 1.4], ""optical"": {""transparent"": 1, ""refraction"": 1.5, ""birefringence"": 0.01}}"
Poudretteite,KNa2(B3Si12)O30,"{""K"": 1.0, ""Na"": 2.0, ""B"": 3.0, ""Si"": 12.0, ""O"": 30.0}",934.59,#FFFFFF,hexagonal,"{""system"": ""hexagonal"", ""scale"": [1.0, 1.0, 1.6], ""optical"": {""transparent"": 1, ""refraction"": 1.5, ""birefringence"": 0.01}}"
Poughite,Fe3+2(Te4+O3)2(SO4)·3H2O,"{""Fe"": 2.0, ""Te"": 2.0, ""O"": 13.0, ""S"": 1.0, ""H"": 6.0}",613.01,#556B2F,orthorhombic,"{""system"": ""orthorhombic"", ""scale"": [0.8, 1.0, 1.2], ""optical"": {""transparent"": 0, ""refraction"": 0.0, ""birefringence"": 0.0}}"
Povondraite,NaFe3+3(Fe3+4Mg2)(Si6O18)(BO3)3(OH)3O,"{""Na"": 1.0, ""Fe"": 7.0, ""Mg"": 2.0, ""Si"": 6.0, ""O"": 31.0, ""B"": 3.0, ""H"": 3.0}",1162.55,#556B2F,hexagonal,"{""system"": ""hexagonal"", ""scale"": [1.0, 1.0, 1.6], ""optical"": {""transparent"": 0, ""refraction"": 0.0, ""birefringence"": 0.0}}"
Powellite,Ca(MoO4),"{""Ca"": 1.0, ""Mo"": 1.0, ""O"": 4.0}",200.03,#FFFFFF,tetragonal,"{""system"": ""tetragonal"", ""scale"": [1.0, 1.0, 1.4], ""optical"": {""transparent"": 1, ""refraction"": 1.5, ""birefringence"": 0.01}}"
Poyarkovite,Hg3OCl,"{""Hg"": 3.0, ""O"": 1.0, ""Cl"": 1.0}",653.22,#FFFFFF,monoclinic,"{""system"": ""monoclinic"", ""scale"": [0.7, 1.0, 1.3], ""optical"": {""transparent"": 1, ""refraction"": 1.5, ""birefringence"": 0.01}}"
Pracharite,CaSb5+2(As3+2O5)2O2·10H2O,"{""Ca"": 1.0, ""Sb"": 2.0, ""As"": 4.0, ""O"": 22.0, ""H"": 20.0}",955.44,#FFFFFF,hexagonal,"{""system"": ""hexagonal"", ""scale"": [1.0, 1.0, 1.6], ""optical"": {""transparent"": 1, ""refraction"": 1.5, ""birefringence"": 0.01}}"
Pradetite,CoCu4(AsO4)2(AsO3OH)2·9H2O,"{""Co"": 1.0, ""Cu"": 4.0, ""As"": 4.0, ""O"": 25.0, ""H"": 20.0}",1032.97,#FFFFFF,triclinic,"{""system"": ""triclinic"", ""scale"": [0.7, 1.0, 1.3], ""optical"": {""transparent"": 1, ""refraction"": 1.5, ""birefringence"": 0.01}}"
Prehnite,Ca2Al(Si3Al)O10(OH)2,"{""Ca"": 2.0, ""Al"": 2.0, ""Si"": 3.0, ""O"": 12.0, ""H"": 2.0}",412.41,#FFFFFF,orthorhombic,"{""system"": ""orthorhombic"", ""scale"": [0.8, 1.0, 1.2], ""optical"": {""transparent"": 1, ""refraction"": 1.5, ""birefringence"": 0.01}}"
Preisingerite,Bi3O(AsO4)2(OH),"{""Bi"": 3.0, ""O"": 10.0, ""As"": 2.0, ""H"": 1.0}",937.79,#FFFFFF,triclinic,"{""system"": ""triclinic"", ""scale"": [0.7, 1.0, 1.3], ""optical"": {""transparent"": 1, ""refraction"": 1.5, ""birefringence"": 0.01}}"
Preiswerkite,NaAlMg2(Si2Al2)O10(OH)2,"{""Na"": 1.0, ""Al"": 3.0, ""Mg"": 2.0, ""Si"": 2.0, ""O"": 12.0, ""H"": 2.0}",402.75,#FFFFFF,monoclinic,"{""system"": ""monoclinic"", ""scale"": [0.7, 1.0, 1.3], ""optical"": {""transparent"": 1, ""refraction"": 1.5, ""birefringence"": 0.01}}"
Preobrazhenskite,Mg3B11O15(OH)9,"{""Mg"": 3.0, ""B"": 11.0, ""O"": 24.0, ""H"": 9.0}",584.91,#FFFFFF,orthorhombic,"{""system"": ""orthorhombic"", ""scale"": [0.8, 1.0, 1.2], ""optical"": {""transparent"": 1, ""refraction"": 1.5, ""birefringence"": 0.01}}"
Pretulite,Sc(PO4),"{""Sc"": 1.0, ""P"": 1.0, ""O"": 4.0}",139.93,#FFFFFF,tetragonal,"{""system"": ""tetragonal"", ""scale"": [1.0, 1.0, 1.4], ""optical"": {""transparent"": 1, ""refraction"": 1.5, ""birefringence"": 0.01}}"
Pribramite,CuSbSe2,"{""Cu"": 1.0, ""Sb"": 1.0, ""Se"": 2.0}",343.23,#00BFFF,orthorhombic,"{""system"": ""orthorhombic"", ""scale"": [0.8, 1.0, 1.2], ""optical"": {""transparent"": 0, ""refraction"": 0.0, ""birefringence"": 0.0}}"
Priceite,Ca2B5O7(OH)5·H2O,"{""Ca"": 2.0, ""B"": 5.0, ""O"": 13.0, ""H"": 7.0}",349.27,#FFFFFF,monoclinic,"{""system"": ""monoclinic"", ""scale"": [0.7, 1.0, 1.3], ""optical"": {""transparent"": 1, ""refraction"": 1.5, ""birefringence"": 0.01}}"
Priderite,K(Ti7Fe3+)O16,"{""K"": 1.0, ""Ti"": 7.0, ""Fe"": 1.0, ""O"": 16.0}",686.04,#556B2F,tetragonal,"{""system"": ""tetragonal"", ""scale"": [1.0, 1.0, 1.4], ""optical"": {""transparent"": 0, ""refraction"": 0.0, ""birefringence"": 0.0}}"
Pringleite,Ca9B26O34(OH)24Cl4·13H2O,"{""Ca"": 9.0, ""B"": 26.0, ""O"": 71.0, ""H"": 50.0, ""Cl"": 4.0}",1969.98,#FFFFFF,triclinic,"{""system"": ""triclinic"", ""scale"": [0.7, 1.0, 1.3], ""optical"": {""transparent"": 1, ""refraction"": 1.5, ""birefringence"": 0.01}}"
Priscillagrewite-(Y),YCa2Zr2Al3O12,"{""Y"": 1.0, ""Ca"": 2.0, ""Zr"": 2.0, ""Al"": 3.0, ""O"": 12.0}",624.45,#FFFFFF,cubic,"{""system"": ""cubic"", ""scale"": [1.0, 1.0, 1.0], ""optical"": {""transparent"": 1, ""refraction"": 1.5, ""birefringence"": 0.0}}"
Probertite,NaCaB5O7(OH)4·3H2O,"{""Na"": 1.0, ""Ca"": 1.0, ""B"": 5.0, ""O"": 14.0, ""H"": 10.0}",351.2,#FFFFFF,monoclinic,"{""system"": ""monoclinic"", ""scale"": [0.7, 1.0, 1.3], ""optical"": {""transparent"": 1, ""refraction"": 1.5, ""birefringence"": 0.01}}"
Prosopite,CaAl2F4(OH)4,"{""Ca"": 1.0, ""Al"": 2.0, ""F"": 4.0, ""O"": 4.0, ""H"": 4.0}",238.07,#FFFFFF,monoclinic,"{""system"": ""monoclinic"", ""scale"": [0.7, 1.0, 1.3], ""optical"": {""transparent"": 1, ""refraction"": 1.5, ""birefringence"": 0.01}}"
Protasite,Ba(UO2)3O3(OH)2·3H2O,"{""Ba"": 1.0, ""U"": 3.0, ""O"": 14.0, ""H"": 8.0}",1083.48,#FFFFFF,monoclinic,"{""system"": ""monoclinic"", ""scale"": [0.7, 1.0, 1.3], ""optical"": {""transparent"": 1, ""refraction"": 1.5, ""birefringence"": 0.01}}"
Protocaseyite,[Al4(OH)6(H2O)12][V10O28]·8H2O,"{""Al"": 4.0, ""O"": 54.0, ""H"": 46.0, ""V"": 10.0}",1527.69,#FFFFFF,triclinic,"{""system"": ""triclinic"", ""scale"": [0.7, 1.0, 1.3], ""optical"": {""transparent"": 1, ""refraction"": 1.5, ""birefringence"": 0.01}}"
Protoenstatite,Mg2Si2O6,"{""Mg"": 2.0, ""Si"": 2.0, ""O"": 6.0}",200.8,#FFFFFF,orthorhombic,"{""system"": ""orthorhombic"", ""scale"": [0.8, 1.0, 1.2], ""optical"": {""transparent"": 1, ""refraction"": 1.5, ""birefringence"": 0.01}}"
Proto-owyheeite,Ag9Pb40Sb45S112,"{""Ag"": 9.0, ""Pb"": 40.0, ""Sb"": 45.0, ""S"": 112.0}",18328.75,#708090,monoclinic,"{""system"": ""monoclinic"", ""scale"": [0.7, 1.0, 1.3], ""optical"": {""transparent"": 0, ""refraction"": 0.0, ""birefringence"": 0.0}}"
Proustite,Ag3AsS3,"{""Ag"": 3.0, ""As"": 1.0, ""S"": 3.0}",494.71,#FFD700,hexagonal,"{""system"": ""hexagonal"", ""scale"": [1.0, 1.0, 1.6], ""optical"": {""transparent"": 0, ""refraction"": 0.0, ""birefringence"": 0.0}}"
Proxidecagonite,Al34Ni9Fe2,"{""Al"": 34.0, ""Ni"": 9.0, ""Fe"": 2.0}",1557.23,#7FFF00,orthorhombic,"{""system"": ""orthorhombic"", ""scale"": [0.8, 1.0, 1.2], ""optical"": {""transparent"": 0, ""refraction"": 0.0, ""birefringence"": 0.0}}"
Proxitwelvefoldite,Pd3Ni4Te8,"{""Pd"": 3.0, ""Ni"": 4.0, ""Te"": 8.0}",1574.82,#7FFF00,tetragonal,"{""system"": ""tetragonal"", ""scale"": [1.0, 1.0, 1.4], ""optical"": {""transparent"": 0, ""refraction"": 0.0, ""birefringence"": 0.0}}"
Przhevalskite,Pb(UO2)2(PO4)2·4H2O,"{""Pb"": 1.0, ""U"": 2.0, ""O"": 16.0, ""P"": 2.0, ""H"": 8.0}",1009.26,#FFFFFF,,"{""system"": """", ""scale"": [1.0, 1.0, 1.0], ""optical"": {""transparent"": 1, ""refraction"": 1.5, ""birefringence"": 0.01}}"
Pseudoboleite,Pb31Cu24Cl62(OH)48,"{""Pb"": 31.0, ""Cu"": 24.0, ""Cl"": 62.0, ""O"": 48.0, ""H"": 48.0}",10962.68,#FFFFFF,tetragonal,"{""system"": ""tetragonal"", ""scale"": [1.0, 1.0, 1.4], ""optical"": {""transparent"": 1, ""refraction"": 1.5, ""birefringence"": 0.01}}"
Pseudobrookite,(Fe3+2Ti)O5,"{""Fe"": 2.0, ""Ti"": 1.0, ""O"": 5.0}",239.57,#8B4513,orthorhombic,"{""system"": ""orthorhombic"", ""scale"": [0.8, 1.0, 1.2], ""optical"": {""transparent"": 0, ""refraction"": 0.0, ""birefringence"": 0.0}}"
Pseudocotunnite,K2PbCl4 (?),"{""K"": 2.0, ""Pb"": 1.0, ""Cl"": 4.0}",427.2,#FFFFFF,,"{""system"": """", ""scale"": [1.0, 1.0, 1.0], ""optical"": {""transparent"": 1, ""refraction"": 1.5, ""birefringence"": 0.01}}"
Pseudodickthomssenite,Mg(VO3)2·8H2O,"{""Mg"": 1.0, ""V"": 2.0, ""O"": 14.0, ""H"": 16.0}",366.32,#FFFFFF,triclinic,"{""system"": ""triclinic"", ""scale"": [0.7, 1.0, 1.3], ""optical"": {""transparent"": 1, ""refraction"": 1.5, ""birefringence"": 0.01}}"
Pseudograndreefite,Pb6(SO4)F10,"{""Pb"": 6.0, ""S"": 1.0, ""O"": 4.0, ""F"": 10.0}",1529.26,#FFFFFF,orthorhombic,"{""system"": ""orthorhombic"", ""scale"": [0.8, 1.0, 1.2], ""optical"": {""transparent"": 1, ""refraction"": 1.5, ""birefringence"": 0.01}}"
Pseudojohannite,Cu3(OH)2[(UO2)4O4(SO4)2]·12H2O,"{""Cu"": 3.0, ""O"": 34.0, ""H"": 26.0, ""U"": 4.0, ""S"": 2.0}",1777.1,#FFFFFF,triclinic,"{""system"": ""triclinic"", ""scale"": [0.7, 1.0, 1.3], ""optical"": {""transparent"": 1, ""refraction"": 1.5, ""birefringence"": 0.01}}"
Pseudolyonsite,Cu3(VO4)2,"{""Cu"": 3.0, ""V"": 2.0, ""O"": 8.0}",420.53,#00BFFF,monoclinic,"{""system"": ""monoclinic"", ""scale"": [0.7, 1.0, 1.3], ""optical"": {""transparent"": 0, ""refraction"": 0.0, ""birefringence"": 0.0}}"
Pseudomalachite,Cu5(PO4)2(OH)4,"{""Cu"": 5.0, ""P"": 2.0, ""O"": 12.0, ""H"": 4.0}",575.72,#FFFFFF,monoclinic,"{""system"": ""monoclinic"", ""scale"": [0.7, 1.0, 1.3], ""optical"": {""transparent"": 1, ""refraction"": 1.5, ""birefringence"": 0.01}}"
Pseudomarkeyite,Ca8(UO2)4(CO3)12(H2O)18·3H2O,"{""Ca"": 8.0, ""U"": 4.0, ""O"": 65.0, ""C"": 12.0, ""H"": 42.0}",2499.22,#FFFFFF,monoclinic,"{""system"": ""monoclinic"", ""scale"": [0.7, 1.0, 1.3], ""optical"": {""transparent"": 1, ""refraction"": 1.5, ""birefringence"": 0.01}}"
Pseudomeisserite-(NH4),(NH4)2Na4[(UO2)2(SO4)5]·4H2O,"{""N"": 2.0, ""H"": 16.0, ""Na"": 4.0, ""U"": 2.0, ""O"": 28.0, ""S"": 5.0}",1220.47,#FFFFFF,monoclinic,"{""system"": ""monoclinic"", ""scale"": [0.7, 1.0, 1.3], ""optical"": {""transparent"": 1, ""refraction"": 1.5, ""birefringence"": 0.01}}"
Pseudorutile,Fe3+2Ti4+3O9,"{""Fe"": 2.0, ""Ti"": 3.0, ""O"": 9.0}",399.31,#8B4513,hexagonal,"{""system"": ""hexagonal"", ""scale"": [1.0, 1.0, 1.6], ""optical"": {""transparent"": 0, ""refraction"": 0.0, ""birefringence"": 0.0}}"
Pseudosinhalite,Mg2Al3B2O9(OH),"{""Mg"": 2.0, ""Al"": 3.0, ""B"": 2.0, ""O"": 10.0, ""H"": 1.0}",312.19,#FFFFFF,monoclinic,"{""system"": ""monoclinic"", ""scale"": [0.7, 1.0, 1.3], ""optical"": {""transparent"": 1, ""refraction"": 1.5, ""birefringence"": 0.01}}"
Pseudowollastonite,CaSiO3,"{""Ca"": 1.0, ""Si"": 1.0, ""O"": 3.0}",116.17,#FFFFFF,monoclinic,"{""system"": ""monoclinic"", ""scale"": [0.7, 1.0, 1.3], ""optical"": {""transparent"": 1, ""refraction"": 1.5, ""birefringence"": 0.01}}"
Pucherite,Bi(VO4),"{""Bi"": 1.0, ""V"": 1.0, ""O"": 4.0}",323.92,#D2B48C,orthorhombic,"{""system"": ""orthorhombic"", ""scale"": [0.8, 1.0, 1.2], ""optical"": {""transparent"": 0, ""refraction"": 0.0, ""birefringence"": 0.0}}"
Pumpellyite-(Mg),Ca2MgAl2(Si2O7)(SiO4)(OH)2·H2O,"{""Ca"": 2.0, ""Mg"": 1.0, ""Al"": 2.0, ""Si"": 3.0, ""O"": 14.0, ""H"": 4.0}",470.73,#FFFFFF,monoclinic,"{""system"": ""monoclinic"", ""scale"": [0.7, 1.0, 1.3], ""optical"": {""transparent"": 1, ""refraction"": 1.5, ""birefringence"": 0.01}}"
Puninite,Na2Cu3O(SO4)3,"{""Na"": 2.0, ""Cu"": 3.0, ""O"": 13.0, ""S"": 3.0}",540.81,#FFFFFF,monoclinic,"{""system"": ""monoclinic"", ""scale"": [0.7, 1.0, 1.3], ""optical"": {""transparent"": 1, ""refraction"": 1.5, ""birefringence"": 0.01}}"
Punkaruaivite,Li{Ti2(OH)2[Si4O11(OH)]}·H2O,"{""Li"": 1.0, ""Ti"": 2.0, ""O"": 15.0, ""H"": 5.0, ""Si"": 4.0}",460.08,#FFFFFF,monoclinic,"{""system"": ""monoclinic"", ""scale"": [0.7, 1.0, 1.3], ""optical"": {""transparent"": 1, ""refraction"": 1.5, ""birefringence"": 0.01}}"
Putnisite,SrCa4Cr3+8(CO3)8(SO4)(OH)16·25H2O,"{""Sr"": 1.0, ""Ca"": 4.0, ""Cr"": 8.0, ""C"": 8.0, ""O"": 69.0, ""S"": 1.0, ""H"": 66.0}",1962.61,#FFFFFF,orthorhombic,"{""system"": ""orthorhombic"", ""scale"": [0.8, 1.0, 1.2], ""optical"": {""transparent"": 1, ""refraction"": 1.5, ""birefringence"": 0.01}}"
Pyatenkoite-(Y),Na5YTiSi6O18·6H2O,"{""Na"": 5.0, ""Y"": 1.0, ""Ti"": 1.0, ""Si"": 6.0, ""O"": 24.0, ""H"": 12.0}",816.37,#FFFFFF,hexagonal,"{""system"": ""hexagonal"", ""scale"": [1.0, 1.0, 1.6], ""optical"": {""transparent"": 1, ""refraction"": 1.5, ""birefringence"": 0.01}}"
Pyracmonite,(NH4)3Fe(SO4)3,"{""N"": 3.0, ""H"": 12.0, ""Fe"": 1.0, ""S"": 3.0, ""O"": 12.0}",398.16,#556B2F,monoclinic,"{""system"": ""monoclinic"", ""scale"": [0.7, 1.0, 1.3], ""optical"": {""transparent"": 0, ""refraction"": 0.0, ""birefringence"": 0.0}}"
Pyradoketosite,Ag3SbS3,"{""Ag"": 3.0, ""Sb"": 1.0, ""S"": 3.0}",541.55,#A9A9A9,monoclinic,"{""system"": ""monoclinic"", ""scale"": [0.7, 1.0, 1.3], ""optical"": {""transparent"": 0, ""refraction"": 0.0, ""birefringence"": 0.0}}"
Pyrargyrite,Ag3SbS3,"{""Ag"": 3.0, ""Sb"": 1.0, ""S"": 3.0}",541.55,#A9A9A9,hexagonal,"{""system"": ""hexagonal"", ""scale"": [1.0, 1.0, 1.6], ""optical"": {""transparent"": 0, ""refraction"": 0.0, ""birefringence"": 0.0}}"
Pyrite,FeS2,"{""Fe"": 1.0, ""S"": 2.0}",119.97,#DAA520,triclinic,"{""system"": ""triclinic"", ""scale"": [0.7, 1.0, 1.3], ""optical"": {""transparent"": 0, ""refraction"": 0.0, ""birefringence"": 0.0}}"
Pyroaurite,Mg6Fe3+2(OH)16(CO3)·4H2O,"{""Mg"": 6.0, ""Fe"": 2.0, ""O"": 23.0, ""H"": 24.0, ""C"": 1.0}",661.76,#556B2F,hexagonal,"{""system"": ""hexagonal"", ""scale"": [1.0, 1.0, 1.6], ""optical"": {""transparent"": 0, ""refraction"": 0.0, ""birefringence"": 0.0}}"
Pyromorphite,Pb5(PO4)3Cl,"{""Pb"": 5.0, ""P"": 3.0, ""O"": 12.0, ""Cl"": 1.0}",1356.36,#FFFFFF,hexagonal,"{""system"": ""hexagonal"", ""scale"": [1.0, 1.0, 1.6], ""optical"": {""transparent"": 1, ""refraction"": 1.5, ""birefringence"": 0.01}}"
Pyrope,Mg3Al2(SiO4)3,"{""Mg"": 3.0, ""Al"": 2.0, ""Si"": 3.0, ""O"": 12.0}",403.16,#FFFFFF,cubic,"{""system"": ""cubic"", ""scale"": [1.0, 1.0, 1.0], ""optical"": {""transparent"": 1, ""refraction"": 1.5, ""birefringence"": 0.0}}"
Pyrophyllite,Al2Si4O10(OH)2,"{""Al"": 2.0, ""Si"": 4.0, ""O"": 12.0, ""H"": 2.0}",360.34,#FFFFFF,triclinic,"{""system"": ""triclinic"", ""scale"": [0.7, 1.0, 1.3], ""optical"": {""transparent"": 1, ""refraction"": 1.5, ""birefringence"": 0.01}}"
Pyrosmalite-(Fe),Fe2+8Si6O15(OH)10,"{""Fe"": 8.0, ""Si"": 6.0, ""O"": 25.0, ""H"": 10.0}",1025.42,#556B2F,hexagonal,"{""system"": ""hexagonal"", ""scale"": [1.0, 1.0, 1.6], ""optical"": {""transparent"": 0, ""refraction"": 0.0, ""birefringence"": 0.0}}"
Pyrostilpnite,Ag3SbS3,"{""Ag"": 3.0, ""Sb"": 1.0, ""S"": 3.0}",541.55,#A9A9A9,monoclinic,"{""system"": ""monoclinic"", ""scale"": [0.7, 1.0, 1.3], ""optical"": {""transparent"": 0, ""refraction"": 0.0, ""birefringence"": 0.0}}"
Pyroxferroite,Fe2+SiO3,"{""Fe"": 1.0, ""Si"": 1.0, ""O"": 3.0}",131.94,#8B4513,triclinic,"{""system"": ""triclinic"", ""scale"": [0.7, 1.0, 1.3], ""optical"": {""transparent"": 0, ""refraction"": 0.0, ""birefringence"": 0.0}}"
Pyrrhotite,Fe7S8,"{""Fe"": 7.0, ""S"": 8.0}",647.43,#DAA520,hexagonal,"{""system"": ""hexagonal"", ""scale"": [1.0, 1.0, 1.6], ""optical"": {""transparent"": 0, ""refraction"": 0.0, ""birefringence"": 0.0}}"
Qaqarssukite-(Ce),BaCe(CO3)2F,"{""Ba"": 1.0, ""Ce"": 1.0, ""C"": 2.0, ""O"": 6.0, ""F"": 1.0}",416.47,#FFFFFF,hexagonal,"{""system"": ""hexagonal"", ""scale"": [1.0, 1.0, 1.6], ""optical"": {""transparent"": 1, ""refraction"": 1.5, ""birefringence"": 0.01}}"
Qeltite,Ca3TiSi2(Fe3+2Si)O14,"{""Ca"": 3.0, ""Ti"": 1.0, ""Si"": 3.0, ""Fe"": 2.0, ""O"": 14.0}",588.08,#556B2F,hexagonal,"{""system"": ""hexagonal"", ""scale"": [1.0, 1.0, 1.6], ""optical"": {""transparent"": 0, ""refraction"": 0.0, ""birefringence"": 0.0}}"
Qilianshanite,NaH4(CO3)(BO3)·2H2O,"{""Na"": 1.0, ""H"": 8.0, ""C"": 1.0, ""O"": 8.0, ""B"": 1.0}",181.87,#FFFFFF,monoclinic,"{""system"": ""monoclinic"", ""scale"": [0.7, 1.0, 1.3], ""optical"": {""transparent"": 1, ""refraction"": 1.5, ""birefringence"": 0.01}}"
Qingsongite,BN,"{""B"": 1.0, ""N"": 1.0}",24.82,#FFFFFF,cubic,"{""system"": ""cubic"", ""scale"": [1.0, 1.0, 1.0], ""optical"": {""transparent"": 1, ""refraction"": 1.5, ""birefringence"": 0.0}}"
Qitianlingite,Fe2+2Nb2W6+O10,"{""Fe"": 2.0, ""Nb"": 2.0, ""W"": 1.0, ""O"": 10.0}",641.36,#556B2F,orthorhombic,"{""system"": ""orthorhombic"", ""scale"": [0.8, 1.0, 1.2], ""optical"": {""transparent"": 0, ""refraction"": 0.0, ""birefringence"": 0.0}}"
Quadratite,AgCdAsS3,"{""Ag"": 1.0, ""Cd"": 1.0, ""As"": 1.0, ""S"": 3.0}",391.38,#FFD700,tetragonal,"{""system"": ""tetragonal"", ""scale"": [1.0, 1.0, 1.4], ""optical"": {""transparent"": 0, ""refraction"": 0.0, ""birefringence"": 0.0}}"
Quadruphite,Na6Na2(CaNa)2Na2Ti2Na2Ti2(Si2O7)2(PO4)4O4F2,"{""Na"": 14.0, ""Ca"": 2.0, ""Ti"": 4.0, ""Si"": 4.0, ""O"": 34.0, ""P"": 4.0, ""F"": 2.0}",1411.74,#FFFFFF,triclinic,"{""system"": ""triclinic"", ""scale"": [0.7, 1.0, 1.3], ""optical"": {""transparent"": 1, ""refraction"": 1.5, ""birefringence"": 0.01}}"
Quartz,SiO2,"{""Si"": 1.0, ""O"": 2.0}",60.09,#FFFFFF,hexagonal,"{""system"": ""hexagonal"", ""scale"": [1.0, 1.0, 1.6], ""optical"": {""transparent"": 1, ""refraction"": 1.5, ""birefringence"": 0.01}}"
Quatrandorite,AgPbSb3S6,"{""Ag"": 1.0, ""Pb"": 1.0, ""Sb"": 3.0, ""S"": 6.0}",872.71,#708090,monoclinic,"{""system"": ""monoclinic"", ""scale"": [0.7, 1.0, 1.3], ""optical"": {""transparent"": 0, ""refraction"": 0.0, ""birefringence"": 0.0}}"
Quenstedtite,Fe3+2(SO4)3·11H2O,"{""Fe"": 2.0, ""S"": 3.0, ""O"": 23.0, ""H"": 22.0}",598.06,#556B2F,triclinic,"{""system"": ""triclinic"", ""scale"": [0.7, 1.0, 1.3], ""optical"": {""transparent"": 0, ""refraction"": 0.0, ""birefringence"": 0.0}}"