name,formula,elements,density,color,crystal
Tyrolite,Ca2Cu9(AsO4)4(CO3)(OH)8·11H2O,"{""Ca"": 2.0, ""Cu"": 9.0, ""As"": 4.0, ""O"": 38.0, ""C"": 1.0, ""H"": 30.0}",1601.971,#FFFFFF,monoclinic
Tyuyamunite,Ca(UO2)2(VO4)2·5-8H2O,"{""Ca"": 1.0, ""U"": 2.0, ""O"": 20.0, ""V"": 2.0, ""H"": 16.0}",954.13,#FFFFFF,tetragonal
Uakitite,VN,"{""V"": 1.0, ""N"": 1.0}",64.949,#FFFFFF,cubic
Udinaite,NaMg4(VO4)3,"{""Na"": 1.0, ""Mg"": 4.0, ""V"": 3.0, ""O"": 12.0}",465.024,#FFFFFF,tetragonal
Uduminelite,Ca3Al8(PO4)2O12·2H2O,"{""Ca"": 3.0, ""Al"": 8.0, ""P"": 2.0, ""O"": 22.0, ""H"": 4.0}",754.048,#FFFFFF,
Uklonskovite,NaMg(SO4)F·2H2O,"{""Na"": 1.0, ""Mg"": 1.0, ""S"": 1.0, ""O"": 6.0, ""F"": 1.0, ""H"": 4.0}",198.379,#FFFFFF,monoclinic
Ulexite,NaCaB5O6(OH)6·5H2O,"{""Na"": 1.0, ""Ca"": 1.0, ""B"": 5.0, ""O"": 17.0, ""H"": 16.0}",405.229,#FFFFFF,triclinic
Ullmannite,NiSbS,"{""Ni"": 1.0, ""Sb"": 1.0, ""S"": 1.0}",212.513,#A9A9A9,triclinic
Ulrichite,CaCu(UO2)(PO4)2·4H2O,"{""Ca"": 1.0, ""Cu"": 1.0, ""U"": 1.0, ""O"": 14.0, ""P"": 2.0, ""H"": 8.0}",635.652,#FFFFFF,monoclinic
Ulvospinel,Fe2+2TiO4,"{""Fe"": 2.0, ""Ti"": 1.0, ""O"": 4.0}",223.553,#8B4513,cubic
Umangite,Cu3Se2,"{""Cu"": 3.0, ""Se"": 2.0}",348.58,#00BFFF,tetragonal
Umbite,K2ZrSi3O9·H2O,"{""K"": 2.0, ""Zr"": 1.0, ""Si"": 3.0, ""O"": 10.0, ""H"": 2.0}",415.681,#FFFFFF,orthorhombic
Umbrianite,K7Na2Ca2[Al3Si10O29]F2Cl2,"{""K"": 7.0, ""Na"": 2.0, ""Ca"": 2.0, ""Al"": 3.0, ""Si"": 10.0, ""O"": 29.0, ""F"": 2.0, ""Cl"": 2.0}",1334.485,#FFFFFF,orthorhombic
Umohoite,(UO2)(MoO4)·2H2O,"{""U"": 1.0, ""O"": 8.0, ""Mo"": 1.0, ""H"": 4.0}",466.004,#FFFFFF,monoclinic
Ungavaite,Pd4Sb3,"{""Pd"": 4.0, ""Sb"": 3.0}",790.96,#A9A9A9,tetragonal
Ungemachite,K3Na8Fe3+(SO4)6(NO3)2·6H2O,"{""K"": 3.0, ""Na"": 8.0, ""Fe"": 1.0, ""S"": 6.0, ""O"": 36.0, ""N"": 2.0, ""H"": 12.0}",1165.493,#556B2F,hexagonal
Upalite,Al(UO2)3(PO4)2O(OH)·7H2O,"{""Al"": 1.0, ""U"": 3.0, ""O"": 23.0, ""P"": 2.0, ""H"": 15.0}",1186.117,#FFFFFF,monoclinic
Uralborite,CaB2O2(OH)4,"{""Ca"": 1.0, ""B"": 2.0, ""O"": 6.0, ""H"": 4.0}",161.724,#FFFFFF,monoclinic
Uralolite,Ca2Be4(PO4)3(OH)3·5H2O,"{""Ca"": 2.0, ""Be"": 4.0, ""P"": 3.0, ""O"": 20.0, ""H"": 13.0}",542.2108,#FFFFFF,monoclinic
Uramarsite,(NH4)(UO2)(AsO4)·3H2O,"{""N"": 1.0, ""H"": 10.0, ""U"": 1.0, ""O"": 9.0, ""As"": 1.0}",481.03,#FFFFFF,triclinic
Uramphite,(NH4)(UO2)(PO4)·3H2O,"{""N"": 1.0, ""H"": 10.0, ""U"": 1.0, ""O"": 9.0, ""P"": 1.0}",437.082,#FFFFFF,triclinic
Urancalcarite,Ca(UO2)3(CO3)(OH)6·3H2O,"{""Ca"": 1.0, ""U"": 3.0, ""O"": 18.0, ""C"": 1.0, ""H"": 12.0}",1066.257,#FFFFFF,orthorhombic
Uraninite,UO2,"{""U"": 1.0, ""O"": 2.0}",270.028,#ADFF2F,cubic
Uranocircite,Ba(UO2)2(PO4)2·10H2O,"{""Ba"": 1.0, ""U"": 2.0, ""O"": 22.0, ""P"": 2.0, ""H"": 20.0}",1047.476,#FFFFFF,monoclinic
Uranoclite,(UO2)2(OH)2Cl2(H2O)4,"{""U"": 2.0, ""O"": 10.0, ""H"": 10.0, ""Cl"": 2.0}",717.03,#FFFFFF,monoclinic
Uranophane,Ca(UO2)2(SiO3OH)2·5H2O,"{""Ca"": 1.0, ""U"": 2.0, ""O"": 17.0, ""Si"": 2.0, ""H"": 12.0}",856.387,#FFFFFF,monoclinic
Uranopilite,(UO2)6(SO4)O2(OH)6·14H2O,"{""U"": 6.0, ""O"": 38.0, ""S"": 1.0, ""H"": 34.0}",2102.474,#FFFFFF,triclinic
Uranopolycrase,UTi2O6,"{""U"": 1.0, ""Ti"": 2.0, ""O"": 6.0}",429.758,#ADFF2F,orthorhombic
Uranosilite,(UO2)Si7O15,"{""U"": 1.0, ""O"": 17.0, ""Si"": 7.0}",706.608,#ADFF2F,orthorhombic
Uranosphaerite,Bi(UO2)O2(OH),"{""Bi"": 1.0, ""U"": 1.0, ""O"": 5.0, ""H"": 1.0}",528.013,#FFFFFF,monoclinic
Uranospinite,Ca(UO2)2(AsO4)2·10H2O,"{""Ca"": 1.0, ""U"": 2.0, ""O"": 22.0, ""As"": 2.0, ""H"": 20.0}",1038.12,#FFFFFF,
Uranotungstite,Ba(UO2)2W2O8(OH)2·H2O,"{""Ba"": 1.0, ""U"": 2.0, ""O"": 15.0, ""W"": 2.0, ""H"": 4.0}",1225.087,#FFFFFF,orthorhombic
Urea,CO(NH2)2,"{""C"": 1.0, ""O"": 1.0, ""N"": 2.0, ""H"": 4.0}",60.056,#FFFFFF,tetragonal
Uricite,C5H4N4O3,"{""C"": 5.0, ""H"": 4.0, ""N"": 4.0, ""O"": 3.0}",168.112,#FFFFFF,monoclinic
Uroxite,[(UO2)2(C2O4)(OH)2(H2O)2]·H2O,"{""U"": 2.0, ""O"": 13.0, ""C"": 2.0, ""H"": 8.0}",716.133,#FFFFFF,monoclinic
Urusovite,CuAlO(AsO4),"{""Cu"": 1.0, ""Al"": 1.0, ""O"": 5.0, ""As"": 1.0}",245.445,#FFFFFF,monoclinic
Ushkovite,MgFe3+2(PO4)2(OH)2·8H2O,"{""Mg"": 1.0, ""Fe"": 2.0, ""P"": 2.0, ""O"": 18.0, ""H"": 18.0}",504.069,#556B2F,triclinic
Usovite,Ba2CaMgAl2F14,"{""Ba"": 2.0, ""Ca"": 1.0, ""Mg"": 1.0, ""Al"": 2.0, ""F"": 14.0}",658.979,#FFFFFF,monoclinic
Ussingite,Na2AlSi3O8(OH),"{""Na"": 2.0, ""Al"": 1.0, ""Si"": 3.0, ""O"": 9.0, ""H"": 1.0}",302.216,#FFFFFF,triclinic
Usturite,Ca3(SbZr)(FeO4)3,"{""Ca"": 3.0, ""Sb"": 1.0, ""Zr"": 1.0, ""Fe"": 3.0, ""O"": 12.0}",692.741,#556B2F,cubic
Uvanite,(UO2)2V5+6O17·15H2O (?),"{""U"": 2.0, ""O"": 36.0, ""V"": 6.0, ""H"": 30.0}",1387.916,#FFFFFF,
Uvarovite,Ca3Cr2(SiO4)3,"{""Ca"": 3.0, ""Cr"": 2.0, ""Si"": 3.0, ""O"": 12.0}",500.469,#FFFFFF,orthorhombic
Uvite,CaMg3(Al5Mg)(Si6O18)(BO3)3(OH)3(OH),"{""Ca"": 1.0, ""Mg"": 4.0, ""Al"": 5.0, ""Si"": 6.0, ""O"": 31.0, ""B"": 3.0, ""H"": 4.0}",973.149,#FFFFFF,hexagonal
Uytenbogaardtite,Ag3AuS2,"{""Ag"": 3.0, ""Au"": 1.0, ""S"": 2.0}",584.7,#A9A9A9,cubic
Uzonite,As4S5,"{""As"": 4.0, ""S"": 5.0}",459.988,#FFD700,monoclinic
Vaesite,NiS2,"{""Ni"": 1.0, ""S"": 2.0}",122.813,#A9A9A9,cubic
Vajdakite,(Mo6+O2)2As3+2O5·3H2O,"{""Mo"": 2.0, ""O"": 12.0, ""As"": 2.0, ""H"": 6.0}",539.78,#FFFFFF,monoclinic
Vakhrushevaite,Mg5Cr(AlSi3O10)(OH)8,"{""Mg"": 5.0, ""Cr"": 1.0, ""Al"": 1.0, ""Si"": 3.0, ""O"": 18.0, ""H"": 8.0}",580.804,#FFFFFF,triclinic
Valentinite,Sb2O3,"{""Sb"": 2.0, ""O"": 3.0}",291.517,#A9A9A9,orthorhombic
Valleyite,Ca4Fe6O13,"{""Ca"": 4.0, ""Fe"": 6.0, ""O"": 13.0}",703.369,#8B4513,cubic
Vanackerite,Pb4Cd(AsO4)3Cl,"{""Pb"": 4.0, ""Cd"": 1.0, ""As"": 3.0, ""O"": 12.0, ""Cl"": 1.0}",1393.414,#FFFFFF,hexagonal
Vanadinite,Pb5(VO4)3Cl,"{""Pb"": 5.0, ""V"": 3.0, ""O"": 12.0, ""Cl"": 1.0}",1416.264,#FFFFFF,hexagonal
Vanadio-oxy-chromium-dravite,NaV3(Cr4Mg2)(Si6O18)(BO3)3(OH)3O,"{""Na"": 1.0, ""V"": 3.0, ""Cr"": 4.0, ""Mg"": 2.0, ""Si"": 6.0, ""O"": 31.0, ""B"": 3.0, ""H"": 3.0}",1132.343,#FFFFFF,hexagonal
Vanadio-oxy-dravite,NaV3(Al4Mg2)(Si6O18)(BO3)3(OH)3O,"{""Na"": 1.0, ""V"": 3.0, ""Al"": 4.0, ""Mg"": 2.0, ""Si"": 6.0, ""O"": 31.0, ""B"": 3.0, ""H"": 3.0}",1032.287,#FFFFFF,hexagonal
Vanadio-pargasite,NaCa2(Mg4V)(Si6Al2)O22(OH)2,"{""Na"": 1.0, ""Ca"": 2.0, ""Mg"": 4.0, ""V"": 1.0, ""Si"": 6.0, ""Al"": 2.0, ""O"": 24.0, ""H"": 2.0}",859.774,#FFFFFF,monoclinic
Vanadium,V,"{""V"": 1.0}",50.942,#FFFFFF,cubic
Vanadoallanite-(La),CaLa3+V3+AlFe2+(Si2O7)(SiO4)O(OH),"{""Ca"": 1.0, ""La"": 1.0, ""V"": 1.0, ""Al"": 1.0, ""Fe"": 1.0, ""Si"": 3.0, ""O"": 13.0, ""H"": 1.0}",606.007,#556B2F,monoclinic
Vanadomalayaite,CaVO(SiO4),"{""Ca"": 1.0, ""V"": 1.0, ""O"": 5.0, ""Si"": 1.0}",199.1,#FFFFFF,monoclinic
Vanalite,NaAl8V10O38·30H2O,"{""Na"": 1.0, ""Al"": 8.0, ""V"": 10.0, ""O"": 68.0, ""H"": 60.0}",1896.678,#FFFFFF,monoclinic
Vandenbrandeite,Cu(UO2)(OH)4,"{""Cu"": 1.0, ""U"": 1.0, ""O"": 6.0, ""H"": 4.0}",401.602,#FFFFFF,triclinic
Vandermeerscheite,K2[(UO2)2V2O8]·2H2O,"{""K"": 2.0, ""U"": 2.0, ""O"": 14.0, ""V"": 2.0, ""H"": 4.0}",884.158,#FFFFFF,monoclinic
Vanmeersscheite,U(UO2)3(PO4)2(OH)6·4H2O,"{""U"": 4.0, ""O"": 24.0, ""P"": 2.0, ""H"": 14.0}",1412.156,#FFFFFF,orthorhombic
Vanoxite,V6O13·8H2O (?),"{""V"": 6.0, ""O"": 21.0, ""H"": 16.0}",657.759,#FFFFFF,
Vanpeltite,(Mo2O5)(S4+O3)·4H2O,"{""Mo"": 2.0, ""O"": 12.0, ""S"": 1.0, ""H"": 8.0}",424.012,#FFFFFF,monoclinic
Vantasselite,Al4(PO4)3(OH)3·9H2O,"{""Al"": 4.0, ""P"": 3.0, ""O"": 24.0, ""H"": 21.0}",605.994,#FFFFFF,orthorhombic
Vanthoffite,Na6Mg(SO4)4,"{""Na"": 6.0, ""Mg"": 1.0, ""S"": 4.0, ""O"": 16.0}",546.469,#FFFFFF,monoclinic
Vapnikite,Ca2CaUO6,"{""Ca"": 3.0, ""U"": 1.0, ""O"": 6.0}",454.258,#ADFF2F,monoclinic
Variscite,Al(PO4)·2H2O,"{""Al"": 1.0, ""P"": 1.0, ""O"": 6.0, ""H"": 4.0}",157.982,#FFFFFF,orthorhombic
Vashegyite,Al11(PO4)9(OH)6·38H2O,"{""Al"": 11.0, ""P"": 9.0, ""O"": 80.0, ""H"": 82.0}",1938.144,#FFFFFF,orthorhombic
Vasilseverginite,Cu9O4(AsO4)2(SO4)2,"{""Cu"": 9.0, ""O"": 20.0, ""As"": 2.0, ""S"": 2.0}",1105.858,#FFFFFF,monoclinic
Vasilyevite,(Hg2)2+10O6I3Br2Cl(CO3),"{""Hg"": 20.0, ""O"": 9.0, ""I"": 3.0, ""Br"": 2.0, ""Cl"": 1.0, ""C"": 1.0}",4743.76,#FFFFFF,triclinic
Vastmanlandite-(Ce),Ce3CaMg2Al2Si5O19(OH)2F,"{""Ce"": 3.0, ""Ca"": 1.0, ""Mg"": 2.0, ""Al"": 2.0, ""Si"": 5.0, ""O"": 21.0, ""H"": 2.0, ""F"": 1.0}",1060.43,#FFFFFF,monoclinic
Vaterite,Ca(CO3),"{""Ca"": 1.0, ""C"": 1.0, ""O"": 3.0}",100.086,#FFFFFF,triclinic
Vaughanite,TlHgSb4S7,"{""Tl"": 1.0, ""Hg"": 1.0, ""Sb"": 4.0, ""S"": 7.0}",1116.43,#A9A9A9,triclinic
Vauquelinite,CuPb2(CrO4)(PO4)(OH),"{""Cu"": 1.0, ""Pb"": 2.0, ""Cr"": 1.0, ""O"": 9.0, ""P"": 1.0, ""H"": 1.0}",705.915,#FFFFFF,monoclinic
Vauxite,Fe2+Al2(PO4)2(OH)2·6H2O,"{""Fe"": 1.0, ""Al"": 2.0, ""P"": 2.0, ""O"": 16.0, ""H"": 14.0}",441.853,#556B2F,triclinic
Vavrinite,Ni2SbTe2,"{""Ni"": 2.0, ""Sb"": 1.0, ""Te"": 2.0}",494.346,#7FFF00,hexagonal
Veatchite,Sr2B11O16(OH)5·H2O,"{""Sr"": 2.0, ""B"": 11.0, ""O"": 22.0, ""H"": 7.0}",653.184,#FFFFFF,triclinic
Vegrandisite,BaCl2,"{""Ba"": 1.0, ""Cl"": 2.0}",208.23,#FFFFFF,orthorhombic
Vendidaite,Al2(SO4)(OH)3Cl·6H2O,"{""Al"": 2.0, ""S"": 1.0, ""O"": 13.0, ""H"": 15.0, ""Cl"": 1.0}",344.581,#FFFFFF,monoclinic
Verbeekite,PdSe2,"{""Pd"": 1.0, ""Se"": 2.0}",264.362,#FFFFFF,monoclinic
Verbierite,BeCr3+2TiO6,"{""Be"": 1.0, ""Cr"": 2.0, ""Ti"": 1.0, ""O"": 6.0}",256.8652,#FFFFFF,orthorhombic
Vergasovaite,Cu3O(MoO4)(SO4),"{""Cu"": 3.0, ""O"": 9.0, ""Mo"": 1.0, ""S"": 1.0}",462.639,#FFFFFF,orthorhombic
Verneite,Na2Ca3Al2F14,"{""Na"": 2.0, ""Ca"": 3.0, ""Al"": 2.0, ""F"": 14.0}",486.15,#FFFFFF,cubic
Versiliaite,(Fe2+2Fe3+2)(Fe3+2Sb3+6)O16S,"{""Fe"": 6.0, ""Sb"": 6.0, ""O"": 16.0, ""S"": 1.0}",1353.674,#556B2F,orthorhombic
Vertumnite,Ca4Al4Si4O6(OH)24·3H2O,"{""Ca"": 4.0, ""Al"": 4.0, ""Si"": 4.0, ""O"": 33.0, ""H"": 30.0}",938.787,#FFFFFF,hexagonal
Vesignieite,Cu3Ba(VO4)2(OH)2,"{""Cu"": 3.0, ""Ba"": 1.0, ""V"": 2.0, ""O"": 10.0, ""H"": 2.0}",591.858,#FFFFFF,monoclinic
Vestaite,(Ti4+Fe2+)Ti4+3O9,"{""Ti"": 4.0, ""Fe"": 1.0, ""O"": 9.0}",391.304,#8B4513,monoclinic
Vigezzite,CaNb2O6,"{""Ca"": 1.0, ""Nb"": 2.0, ""O"": 6.0}",321.884,#FFFFFF,orthorhombic
Vihorlatite,Bi24Se17Te4,"{""Bi"": 24.0, ""Se"": 17.0, ""Te"": 4.0}",6868.427,#D2B48C,hexagonal
Viitaniemiite,NaCaAl(PO4)F3,"{""Na"": 1.0, ""Ca"": 1.0, ""Al"": 1.0, ""P"": 1.0, ""O"": 4.0, ""F"": 3.0}",242.014,#FFFFFF,monoclinic
Vikingite,Ag5Pb8Bi13S30,"{""Ag"": 5.0, ""Pb"": 8.0, ""Bi"": 13.0, ""S"": 30.0}",5875.49,#708090,monoclinic
Villamaninite,CuS2,"{""Cu"": 1.0, ""S"": 2.0}",127.666,#A9A9A9,monoclinic
Villiaumite,NaF,"{""Na"": 1.0, ""F"": 1.0}",41.988,#FFFFFF,cubic
Vimsite,CaB2O2(OH)4,"{""Ca"": 1.0, ""B"": 2.0, ""O"": 6.0, ""H"": 4.0}",161.724,#FFFFFF,monoclinic
Vincentite,Pd3As,"{""Pd"": 3.0, ""As"": 1.0}",394.182,#808080,monoclinic
Violarite,FeNi2S4,"{""Fe"": 1.0, ""Ni"": 2.0, ""S"": 4.0}",301.471,#DAA520,cubic
Virgilite,LiAlSi2O6,"{""Li"": 1.0, ""Al"": 1.0, ""Si"": 2.0, ""O"": 6.0}",186.086,#FFFFFF,hexagonal
Virgilluethite,MoO3·H2O,"{""Mo"": 1.0, ""O"": 4.0, ""H"": 2.0}",161.962,#FFFFFF,monoclinic
Vishnevite,Na8(Al6Si6)O24(SO4)·2H2O,"{""Na"": 8.0, ""Al"": 6.0, ""Si"": 6.0, ""O"": 30.0, ""S"": 1.0, ""H"": 4.0}",1030.384,#FFFFFF,hexagonal
Viskontite,Pb5Cu2(SO4)3(SeO3)(OH)6,"{""Pb"": 5.0, ""Cu"": 2.0, ""S"": 3.0, ""O"": 21.0, ""Se"": 1.0, ""H"": 6.0}",1680.27,#FFFFFF,orthorhombic
Vitimite,Ca6B14O19(SO4)(OH)14·5H2O,"{""Ca"": 6.0, ""B"": 14.0, ""O"": 42.0, ""S"": 1.0, ""H"": 24.0}",1120.018,#FFFFFF,monoclinic
Vitusite-(Ce),Na3Ce(PO4)2,"{""Na"": 3.0, ""Ce"": 1.0, ""P"": 2.0, ""O"": 8.0}",399.03,#FFFFFF,orthorhombic
Vivianite,Fe2+3(PO4)2·8H2O,"{""Fe"": 3.0, ""P"": 2.0, ""O"": 16.0, ""H"": 16.0}",501.595,#556B2F,monoclinic
Vladimirite,Ca4(AsO4)2(AsO3OH)·4H2O,"{""Ca"": 4.0, ""As"": 3.0, ""O"": 16.0, ""H"": 9.0}",650.134,#FFFFFF,monoclinic
Vladykinite,Na3Sr4(Fe2+Fe3+)Si8O24,"{""Na"": 3.0, ""Sr"": 4.0, ""Fe"": 2.0, ""Si"": 8.0, ""O"": 24.0}",1139.796,#556B2F,monoclinic
Vlasovite,Na2ZrSi4O11,"{""Na"": 2.0, ""Zr"": 1.0, ""Si"": 4.0, ""O"": 11.0}",425.533,#FFFFFF,monoclinic
Vlodavetsite,Ca2Al(SO4)2F2Cl·4H2O,"{""Ca"": 2.0, ""Al"": 1.0, ""S"": 2.0, ""O"": 12.0, ""F"": 2.0, ""Cl"": 1.0, ""H"": 8.0}",444.756,#FFFFFF,tetragonal
Vochtenite,Fe2+Fe3+(UO2)4(PO4)4(OH)·12-13H2O,"{""Fe"": 2.0, ""U"": 4.0, ""O"": 38.0, ""P"": 4.0, ""H"": 27.0}",1822.884,#556B2F,monoclinic
Voggite,Na2Zr(PO4)(CO3)(OH)·2H2O,"{""Na"": 2.0, ""Zr"": 1.0, ""P"": 1.0, ""O"": 10.0, ""C"": 1.0, ""H"": 5.0}",345.219,#FFFFFF,monoclinic
Voglite,Ca2Cu(UO2)(CO3)4·6H2O,"{""Ca"": 2.0, ""Cu"": 1.0, ""U"": 1.0, ""O"": 20.0, ""C"": 4.0, ""H"": 12.0}",761.852,#FFFFFF,monoclinic
Volaschioite,Fe4(SO4)O2(OH)6·2H2O,"{""Fe"": 4.0, ""S"": 1.0, ""O"": 14.0, ""H"": 10.0}",489.506,#556B2F,monoclinic
Volborthite,Cu3V2O7(OH)2·2H2O,"{""Cu"": 3.0, ""V"": 2.0, ""O"": 11.0, ""H"": 6.0}",474.559,#FFFFFF,monoclinic
Volkovskite,KCa4B22O32(OH)10Cl·4H2O,"{""K"": 1.0, ""Ca"": 4.0, ""B"": 22.0, ""O"": 46.0, ""H"": 18.0, ""Cl"": 1.0}",1226.778,#FFFFFF,triclinic
Voltaite,K2Fe2+5Fe3+3Al(SO4)12·18H2O,"{""K"": 2.0, ""Fe"": 8.0, ""Al"": 1.0, ""S"": 12.0, ""O"": 66.0, ""H"": 36.0}",2028.88,#556B2F,cubic
Volynskite,AgBiTe2,"{""Ag"": 1.0, ""Bi"": 1.0, ""Te"": 2.0}",572.05,#C0C0C0,hexagonal
Vonbezingite,Ca6Cu3(SO4)3(OH)12·2H2O,"{""Ca"": 6.0, ""Cu"": 3.0, ""S"": 3.0, ""O"": 26.0, ""H"": 16.0}",959.388,#FFFFFF,monoclinic
Vonsenite,Fe2+2Fe3+O2(BO3),"{""Fe"": 3.0, ""O"": 5.0, ""B"": 1.0}",258.34,#8B4513,orthorhombic
Vorlanite,CaUO4,"{""Ca"": 1.0, ""U"": 1.0, ""O"": 4.0}",342.104,#ADFF2F,cubic
Vorontsovite,(Hg5Cu)TlAs4S12,"{""Hg"": 5.0, ""Cu"": 1.0, ""Tl"": 1.0, ""As"": 4.0, ""S"": 12.0}",1955.284,#FFD700,cubic
Voudourisite,Cd(SO4)·H2O,"{""Cd"": 1.0, ""S"": 1.0, ""O"": 5.0, ""H"": 2.0}",226.481,#FFFFFF,monoclinic
Vozhminite,Ni4AsS2,"{""Ni"": 4.0, ""As"": 1.0, ""S"": 2.0}",373.814,#FFD700,hexagonal
Vranaite,Al16B4Si4O38,"{""Al"": 16.0, ""B"": 4.0, ""Si"": 4.0, ""O"": 38.0}",1195.254,#FFFFFF,monoclinic
Vranciceite,Cu10Hg3S8,"{""Cu"": 10.0, ""Hg"": 3.0, ""S"": 8.0}",1493.71,#A9A9A9,triclinic
Vrbaite,Hg3Tl4As8Sb2S20,"{""Hg"": 3.0, ""Tl"": 4.0, ""As"": 8.0, ""Sb"": 2.0, ""S"": 20.0}",2903.386,#FFD700,orthorhombic
Vuagnatite,CaAlSiO4(OH),"{""Ca"": 1.0, ""Al"": 1.0, ""Si"": 1.0, ""O"": 5.0, ""H"": 1.0}",176.148,#FFFFFF,orthorhombic
Vulcanite,CuTe,"{""Cu"": 1.0, ""Te"": 1.0}",191.146,#00BFFF,orthorhombic
Vuonnemite,Na6Na2Nb2Na3Ti(Si2O7)2(PO4)2O2(OF),"{""Na"": 11.0, ""Nb"": 2.0, ""Ti"": 1.0, ""Si"": 4.0, ""O"": 25.0, ""P"": 2.0, ""F"": 1.0}",1079.83,#FFFFFF,triclinic
Vyacheslavite,U4+(PO4)(OH),"{""U"": 1.0, ""P"": 1.0, ""O"": 5.0, ""H"": 1.0}",350.007,#FFFFFF,orthorhombic
Vyalsovite,CaFeAlS(OH)5,"{""Ca"": 1.0, ""Fe"": 1.0, ""Al"": 1.0, ""S"": 1.0, ""O"": 5.0, ""H"": 5.0}",240.0,#556B2F,monoclinic
Vymazalovaite,Pd3Bi2S2,"{""Pd"": 3.0, ""Bi"": 2.0, ""S"": 2.0}",801.34,#A9A9A9,cubic
Vysokyite,U4+[AsO2(OH)2]4·4H2O,"{""U"": 1.0, ""As"": 4.0, ""O"": 20.0, ""H"": 16.0}",873.826,#FFFFFF,triclinic
Vysotskite,PdS,"{""Pd"": 1.0, ""S"": 1.0}",138.48,#A9A9A9,tetragonal
Wadalite,Ca6Al5Si2O16Cl3,"{""Ca"": 6.0, ""Al"": 5.0, ""Si"": 2.0, ""O"": 16.0, ""Cl"": 3.0}",793.882,#FFFFFF,cubic
Wadeite,K2ZrSi3O9,"{""K"": 2.0, ""Zr"": 1.0, ""Si"": 3.0, ""O"": 9.0}",397.666,#FFFFFF,hexagonal
Wadsleyite,Mg2SiO4,"{""Mg"": 2.0, ""Si"": 1.0, ""O"": 4.0}",140.691,#FFFFFF,monoclinic
Wagnerite,Mg2(PO4)F,"{""Mg"": 2.0, ""P"": 1.0, ""O"": 4.0, ""F"": 1.0}",162.578,#FFFFFF,monoclinic
Waimirite-(Y),YF3,"{""Y"": 1.0, ""F"": 3.0}",145.9,#FFFFFF,orthorhombic
Wairakite,Ca(Si4Al2)O12·2H2O,"{""Ca"": 1.0, ""Si"": 4.0, ""Al"": 2.0, ""O"": 14.0, ""H"": 4.0}",434.4,#FFFFFF,monoclinic
Wairauite,CoFe,"{""Co"": 1.0, ""Fe"": 1.0}",114.778,#4169E1,cubic
Wakefieldite-(Ce),CeVO4,"{""Ce"": 1.0, ""V"": 1.0, ""O"": 4.0}",255.058,#FFFFFF,tetragonal
Wakefieldite-(La),LaVO4,"{""La"": 1.0, ""V"": 1.0, ""O"": 4.0}",253.848,#FFFFFF,tetragonal
Wakefieldite-(Nd),NdVO4,"{""Nd"": 1.0, ""V"": 1.0, ""O"": 4.0}",259.178,#FFFFFF,tetragonal
Wakefieldite-(Y),YVO4,"{""Y"": 1.0, ""V"": 1.0, ""O"": 4.0}",203.844,#FFFFFF,tetragonal
Wallisite,CuPbTlAs2S5,"{""Cu"": 1.0, ""Pb"": 1.0, ""Tl"": 1.0, ""As"": 2.0, ""S"": 5.0}",785.27,#708090,triclinic
Wallkilldellite-(Fe),Ca2Fe2+3(AsO4)2(OH)4·9H2O,"{""Ca"": 2.0, ""Fe"": 3.0, ""As"": 2.0, ""O"": 21.0, ""H"": 22.0}",755.69,#556B2F,hexagonal
Walpurgite,Bi4O4(UO2)(AsO4)2·2H2O,"{""Bi"": 4.0, ""O"": 16.0, ""U"": 1.0, ""As"": 2.0, ""H"": 4.0}",1483.81,#FFFFFF,triclinic
Walstromite,BaCa2Si3O9,"{""Ba"": 1.0, ""Ca"": 2.0, ""Si"": 3.0, ""O"": 9.0}",445.732,#FFFFFF,triclinic
Wampenite,C18H16,"{""C"": 18.0, ""H"": 16.0}",232.326,#FFFFFF,monoclinic
Wangdaodeite,FeTiO3,"{""Fe"": 1.0, ""Ti"": 1.0, ""O"": 3.0}",151.709,#8B4513,hexagonal
Wangkuirenite,Pb3Cl2(SeO3)2,"{""Pb"": 3.0, ""Cl"": 2.0, ""Se"": 2.0, ""O"": 6.0}",946.436,#FFFFFF,monoclinic
Wangpuite,K3(PO4)(Mo12O36),"{""K"": 3.0, ""P"": 1.0, ""O"": 40.0, ""Mo"": 12.0}",1939.628,#FFFFFF,cubic
Wangxibinite,TiFe,"{""Ti"": 1.0, ""Fe"": 1.0}",103.712,#8B4513,cubic
Wangyanite,PdNi8S8,"{""Pd"": 1.0, ""Ni"": 8.0, ""S"": 8.0}",832.444,#A9A9A9,cubic
Wardite,NaAl3(PO4)2(OH)4·2H2O,"{""Na"": 1.0, ""Al"": 3.0, ""P"": 2.0, ""O"": 14.0, ""H"": 8.0}",397.934,#FFFFFF,tetragonal
Wardsmithite,Ca5Mg(B4O7)6·30H2O,"{""Ca"": 5.0, ""Mg"": 1.0, ""B"": 24.0, ""O"": 72.0, ""H"": 60.0}",1696.543,#FFFFFF,
Warkite,Ca2Sc6Al6O20,"{""Ca"": 2.0, ""Sc"": 6.0, ""Al"": 6.0, ""O"": 20.0}",831.764,#FFFFFF,triclinic
Wassonite,TiS,"{""Ti"": 1.0, ""S"": 1.0}",79.927,#A9A9A9,hexagonal
Wattersite,Hg1+4Hg2+O2(CrO4),"{""Hg"": 5.0, ""O"": 6.0, ""Cr"": 1.0}",1150.94,#228B22,monoclinic
Wattevilleite,Na2Ca(SO4)2·4H2O (?),"{""Na"": 2.0, ""Ca"": 1.0, ""S"": 2.0, ""O"": 12.0, ""H"": 8.0}",350.23,#FFFFFF,monoclinic
Wavellite,Al3(PO4)2(OH)3·5H2O,"{""Al"": 3.0, ""P"": 2.0, ""O"": 16.0, ""H"": 13.0}",411.982,#FFFFFF,orthorhombic
Waylandite,BiAl3(PO4)2(OH)6,"{""Bi"": 1.0, ""Al"": 3.0, ""P"": 2.0, ""O"": 14.0, ""H"": 6.0}",581.908,#FFFFFF,hexagonal
Wayneburnhamite,Pb9Ca6(Si2O7)3(SiO4)3,"{""Pb"": 9.0, ""Ca"": 6.0, ""Si"": 9.0, ""O"": 33.0}",2886.0,#FFFFFF,hexagonal
Weberite,Na2MgAlF7,"{""Na"": 2.0, ""Mg"": 1.0, ""Al"": 1.0, ""F"": 7.0}",230.253,#FFFFFF,orthorhombic
Weddellite,Ca(C2O4)·2H2O,"{""Ca"": 1.0, ""C"": 2.0, ""O"": 6.0, ""H"": 4.0}",164.126,#FFFFFF,tetragonal
Weeksite,(K)2(UO2)2(Si5O13)·4H2O,"{""K"": 2.0, ""U"": 2.0, ""O"": 21.0, ""Si"": 5.0, ""H"": 8.0}",1038.724,#FFFFFF,orthorhombic
Wegscheiderite,Na5H3(CO3)4,"{""Na"": 5.0, ""H"": 3.0, ""C"": 4.0, ""O"": 12.0}",358.006,#FFFFFF,triclinic
Weilerite,BaAl3(SO4)(AsO4)(OH)6,"{""Ba"": 1.0, ""Al"": 3.0, ""S"": 1.0, ""O"": 14.0, ""As"": 1.0, ""H"": 6.0}",555.292,#FFFFFF,
Weilite,Ca(AsO3OH),"{""Ca"": 1.0, ""As"": 1.0, ""O"": 4.0, ""H"": 1.0}",180.004,#FFFFFF,triclinic
Weinebeneite,CaBe3(PO4)2(OH)2·4H2O,"{""Ca"": 1.0, ""Be"": 3.0, ""P"": 2.0, ""O"": 14.0, ""H"": 10.0}",363.1286,#FFFFFF,monoclinic
Weissbergite,TlSbS2,"{""Tl"": 1.0, ""Sb"": 1.0, ""S"": 2.0}",390.26,#A9A9A9,triclinic
Weloganite,Na2Sr3Zr(CO3)6·3H2O,"{""Na"": 2.0, ""Sr"": 3.0, ""Zr"": 1.0, ""C"": 6.0, ""O"": 21.0, ""H"": 6.0}",814.157,#FFFFFF,triclinic
Welshite,Ca4[Mg9Sb5+3]O4[Si6Be3AlFe3+2O36],"{""Ca"": 4.0, ""Mg"": 9.0, ""Sb"": 3.0, ""O"": 40.0, ""Si"": 6.0, ""Be"": 3.0, ""Al"": 1.0, ""Fe"": 2.0}",1718.5156,#556B2F,triclinic
Wendwilsonite,Ca2Mg(AsO4)2·2H2O,"{""Ca"": 2.0, ""Mg"": 1.0, ""As"": 2.0, ""O"": 10.0, ""H"": 4.0}",418.327,#FFFFFF,monoclinic
Wenlanzhangite-(Y),Y2V3+2V4+2(SiO4)2O4(OH)4,"{""Y"": 2.0, ""V"": 4.0, ""Si"": 2.0, ""O"": 16.0, ""H"": 4.0}",697.766,#FFFFFF,triclinic
Wenqingite,Pb5(AsS3)2(Ge2S6),"{""Pb"": 5.0, ""As"": 2.0, ""S"": 12.0, ""Ge"": 2.0}",1715.824,#708090,monoclinic
Werdingite,Mg2Al14Si4B4O37,"{""Mg"": 2.0, ""Al"": 14.0, ""Si"": 4.0, ""B"": 4.0, ""O"": 37.0}",1173.901,#FFFFFF,triclinic
Wermlandite,Mg7Al2(OH)18[Ca(H2O)6](SO4)2·6H2O,"{""Mg"": 7.0, ""Al"": 2.0, ""O"": 38.0, ""H"": 42.0, ""Ca"": 1.0, ""S"": 2.0}",978.595,#FFFFFF,hexagonal
Wernerbaurite,{(NH4)2[Ca2(H2O)14](H2O)2}{V10O28},"{""N"": 2.0, ""H"": 40.0, ""Ca"": 2.0, ""O"": 44.0, ""V"": 10.0}",1361.866,#FFFFFF,triclinic