name,formula,elements,density,color,crystal_system,dna
Clinoenstatite,Mg2Si2O6,"{""Mg"": 2.0, ""Si"": 2.0, ""O"": 6.0}",200.8,#FFFFFF,monoclinic,"{""system"": ""monoclinic"", ""scale"": [0.7, 1.0, 1.3], ""optical"": {""transparent"": 1, ""refraction"": 1.5, ""birefringence"": 0.01}}"
Clinofergusonite-(Ce),CeNbO4,"{""Ce"": 1.0, ""Nb"": 1.0, ""O"": 4.0}",297.03,#FFFFFF,monoclinic,"{""system"": ""monoclinic"", ""scale"": [0.7, 1.0, 1.3], ""optical"": {""transparent"": 1, ""refraction"": 1.5, ""birefringence"": 0.01}}"
Clinofergusonite-(Nd),NdNbO4,"{""Nd"": 1.0, ""Nb"": 1.0, ""O"": 4.0}",301.15,#FFFFFF,monoclinic,"{""system"": ""monoclinic"", ""scale"": [0.7, 1.0, 1.3], ""optical"": {""transparent"": 1, ""refraction"": 1.5, ""birefringence"": 0.01}}"
Clinofergusonite-(Y),YNbO4,"{""Y"": 1.0, ""Nb"": 1.0, ""O"": 4.0}",245.82,#FFFFFF,monoclinic,"{""system"": ""monoclinic"", ""scale"": [0.7, 1.0, 1.3], ""optical"": {""transparent"": 1, ""refraction"": 1.5, ""birefringence"": 0.01}}"
Clinoferrosilite,Fe2+2Si2O6,"{""Fe"": 2.0, ""Si"": 2.0, ""O"": 6.0}",263.88,#8B4513,monoclinic,"{""system"": ""monoclinic"", ""scale"": [0.7, 1.0, 1.3], ""optical"": {""transparent"": 0, ""refraction"": 0.0, ""birefringence"": 0.0}}"
Clinohumite,Mg9(SiO4)4F2,"{""Mg"": 9.0, ""Si"": 4.0, ""O"": 16.0, ""F"": 2.0}",625.15,#FFFFFF,monoclinic,"{""system"": ""monoclinic"", ""scale"": [0.7, 1.0, 1.3], ""optical"": {""transparent"": 1, ""refraction"": 1.5, ""birefringence"": 0.01}}"
Clinojimthompsonite,Mg5Si6O16(OH)2,"{""Mg"": 5.0, ""Si"": 6.0, ""O"": 18.0, ""H"": 2.0}",580.11,#FFFFFF,monoclinic,"{""system"": ""monoclinic"", ""scale"": [0.7, 1.0, 1.3], ""optical"": {""transparent"": 1, ""refraction"": 1.5, ""birefringence"": 0.01}}"
Clinokurchatovite,CaMgB2O5,"{""Ca"": 1.0, ""Mg"": 1.0, ""B"": 2.0, ""O"": 5.0}",166.01,#FFFFFF,monoclinic,"{""system"": ""monoclinic"", ""scale"": [0.7, 1.0, 1.3], ""optical"": {""transparent"": 1, ""refraction"": 1.5, ""birefringence"": 0.01}}"
Clinometaborite,HBO2,"{""H"": 1.0, ""B"": 1.0, ""O"": 2.0}",43.82,#FFFFFF,monoclinic,"{""system"": ""monoclinic"", ""scale"": [0.7, 1.0, 1.3], ""optical"": {""transparent"": 1, ""refraction"": 1.5, ""birefringence"": 0.01}}"
Clino-oscarkempffite,Ag15Pb6Sb21Bi18S72,"{""Ag"": 15.0, ""Pb"": 6.0, ""Sb"": 21.0, ""Bi"": 18.0, ""S"": 72.0}",11488.17,#708090,monoclinic,"{""system"": ""monoclinic"", ""scale"": [0.7, 1.0, 1.3], ""optical"": {""transparent"": 0, ""refraction"": 0.0, ""birefringence"": 0.0}}"
Clinophosinaite,Na3Ca(SiO3)(PO4),"{""Na"": 3.0, ""Ca"": 1.0, ""Si"": 1.0, ""O"": 7.0, ""P"": 1.0}",280.11,#FFFFFF,monoclinic,"{""system"": ""monoclinic"", ""scale"": [0.7, 1.0, 1.3], ""optical"": {""transparent"": 1, ""refraction"": 1.5, ""birefringence"": 0.01}}"
Clinoptilolite-Ca,Ca3(Si30Al6)O72·20H2O,"{""Ca"": 3.0, ""Si"": 30.0, ""Al"": 6.0, ""O"": 92.0, ""H"": 40.0}",2637.14,#FFFFFF,monoclinic,"{""system"": ""monoclinic"", ""scale"": [0.7, 1.0, 1.3], ""optical"": {""transparent"": 1, ""refraction"": 1.5, ""birefringence"": 0.01}}"
Clinoptilolite-K,K6(Si30Al6)O72·20H2O,"{""K"": 6.0, ""Si"": 30.0, ""Al"": 6.0, ""O"": 92.0, ""H"": 40.0}",2751.5,#FFFFFF,monoclinic,"{""system"": ""monoclinic"", ""scale"": [0.7, 1.0, 1.3], ""optical"": {""transparent"": 1, ""refraction"": 1.5, ""birefringence"": 0.01}}"
Clinoptilolite-Na,Na6(Si30Al6)O72·20H2O,"{""Na"": 6.0, ""Si"": 30.0, ""Al"": 6.0, ""O"": 92.0, ""H"": 40.0}",2654.84,#FFFFFF,monoclinic,"{""system"": ""monoclinic"", ""scale"": [0.7, 1.0, 1.3], ""optical"": {""transparent"": 1, ""refraction"": 1.5, ""birefringence"": 0.01}}"
Clinosafflorite,CoAs2,"{""Co"": 1.0, ""As"": 2.0}",208.77,#4169E1,monoclinic,"{""system"": ""monoclinic"", ""scale"": [0.7, 1.0, 1.3], ""optical"": {""transparent"": 0, ""refraction"": 0.0, ""birefringence"": 0.0}}"
Clinosulphur,S,"{""S"": 1.0}",32.06,#A9A9A9,monoclinic,"{""system"": ""monoclinic"", ""scale"": [0.7, 1.0, 1.3], ""optical"": {""transparent"": 0, ""refraction"": 0.0, ""birefringence"": 0.0}}"
Clinotobermorite,Ca4Si6O17(H2O)2·(Ca·3H2O),"{""Ca"": 7.0, ""Si"": 6.0, ""O"": 28.0, ""H"": 22.0}",919.28,#FFFFFF,monoclinic,"{""system"": ""monoclinic"", ""scale"": [0.7, 1.0, 1.3], ""optical"": {""transparent"": 1, ""refraction"": 1.5, ""birefringence"": 0.01}}"
Clinoungemachite,K3Na8Fe3+(SO4)6(OH)2·10H2O,"{""K"": 3.0, ""Na"": 8.0, ""Fe"": 1.0, ""S"": 6.0, ""O"": 36.0, ""H"": 22.0}",1147.61,#556B2F,,"{""system"": """", ""scale"": [1.0, 1.0, 1.0], ""optical"": {""transparent"": 0, ""refraction"": 0.0, ""birefringence"": 0.0}}"
Clinozoisite,Ca2Al3[Si2O7][SiO4]O(OH),"{""Ca"": 2.0, ""Al"": 3.0, ""Si"": 3.0, ""O"": 13.0, ""H"": 1.0}",454.38,#FFFFFF,monoclinic,"{""system"": ""monoclinic"", ""scale"": [0.7, 1.0, 1.3], ""optical"": {""transparent"": 1, ""refraction"": 1.5, ""birefringence"": 0.01}}"
Clintonite,CaAlMg2(SiAl3O10)(OH)2,"{""Ca"": 1.0, ""Al"": 4.0, ""Mg"": 2.0, ""Si"": 1.0, ""O"": 12.0, ""H"": 2.0}",418.73,#FFFFFF,monoclinic,"{""system"": ""monoclinic"", ""scale"": [0.7, 1.0, 1.3], ""optical"": {""transparent"": 1, ""refraction"": 1.5, ""birefringence"": 0.01}}"
Clogauite,PbBi4Te4S3,"{""Pb"": 1.0, ""Bi"": 4.0, ""Te"": 4.0, ""S"": 3.0}",1649.7,#708090,hexagonal,"{""system"": ""hexagonal"", ""scale"": [1.0, 1.0, 1.6], ""optical"": {""transparent"": 0, ""refraction"": 0.0, ""birefringence"": 0.0}}"
Cloudite,BaFe3+3(PO4)(SO4)(OH)6,"{""Ba"": 1.0, ""Fe"": 3.0, ""P"": 1.0, ""O"": 14.0, ""S"": 1.0, ""H"": 6.0}",597.96,#556B2F,hexagonal,"{""system"": ""hexagonal"", ""scale"": [1.0, 1.0, 1.6], ""optical"": {""transparent"": 0, ""refraction"": 0.0, ""birefringence"": 0.0}}"
Coalingite,Mg10Fe3+2(CO3)(OH)24·2H2O,"{""Mg"": 10.0, ""Fe"": 2.0, ""C"": 1.0, ""O"": 29.0, ""H"": 28.0}",859.03,#556B2F,hexagonal,"{""system"": ""hexagonal"", ""scale"": [1.0, 1.0, 1.6], ""optical"": {""transparent"": 0, ""refraction"": 0.0, ""birefringence"": 0.0}}"
Cobaltarthurite,CoFe3+2(AsO4)2(OH)2·4H2O,"{""Co"": 1.0, ""Fe"": 2.0, ""As"": 2.0, ""O"": 14.0, ""H"": 10.0}",554.55,#556B2F,monoclinic,"{""system"": ""monoclinic"", ""scale"": [0.7, 1.0, 1.3], ""optical"": {""transparent"": 0, ""refraction"": 0.0, ""birefringence"": 0.0}}"
Cobaltaustinite,CaCo(AsO4)(OH),"{""Ca"": 1.0, ""Co"": 1.0, ""As"": 1.0, ""O"": 5.0, ""H"": 1.0}",254.94,#FFFFFF,orthorhombic,"{""system"": ""orthorhombic"", ""scale"": [0.8, 1.0, 1.2], ""optical"": {""transparent"": 1, ""refraction"": 1.5, ""birefringence"": 0.01}}"
Cobaltite,CoAsS,"{""Co"": 1.0, ""As"": 1.0, ""S"": 1.0}",165.91,#FFD700,cubic,"{""system"": ""cubic"", ""scale"": [1.0, 1.0, 1.0], ""optical"": {""transparent"": 0, ""refraction"": 0.0, ""birefringence"": 0.0}}"
Cobaltkieserite,Co(SO4)·H2O,"{""Co"": 1.0, ""S"": 1.0, ""O"": 5.0, ""H"": 2.0}",173.01,#FFFFFF,monoclinic,"{""system"": ""monoclinic"", ""scale"": [0.7, 1.0, 1.3], ""optical"": {""transparent"": 1, ""refraction"": 1.5, ""birefringence"": 0.01}}"
Cobaltkoritnigite,Co(AsO3OH)·H2O,"{""Co"": 1.0, ""As"": 1.0, ""O"": 5.0, ""H"": 3.0}",216.87,#FFFFFF,triclinic,"{""system"": ""triclinic"", ""scale"": [0.7, 1.0, 1.3], ""optical"": {""transparent"": 1, ""refraction"": 1.5, ""birefringence"": 0.01}}"
Cobaltlotharmeyerite,CaCo2(AsO4)2·2H2O,"{""Ca"": 1.0, ""Co"": 2.0, ""As"": 2.0, ""O"": 10.0, ""H"": 4.0}",471.81,#FFFFFF,monoclinic,"{""system"": ""monoclinic"", ""scale"": [0.7, 1.0, 1.3], ""optical"": {""transparent"": 1, ""refraction"": 1.5, ""birefringence"": 0.01}}"
Cobaltoblodite,Na2Co(SO4)2·4H2O,"{""Na"": 2.0, ""Co"": 1.0, ""S"": 2.0, ""O"": 12.0, ""H"": 8.0}",369.09,#FFFFFF,monoclinic,"{""system"": ""monoclinic"", ""scale"": [0.7, 1.0, 1.3], ""optical"": {""transparent"": 1, ""refraction"": 1.5, ""birefringence"": 0.01}}"
Cobaltomenite,Co(Se4+O3)·2H2O,"{""Co"": 1.0, ""Se"": 1.0, ""O"": 5.0, ""H"": 4.0}",221.92,#FFFFFF,monoclinic,"{""system"": ""monoclinic"", ""scale"": [0.7, 1.0, 1.3], ""optical"": {""transparent"": 1, ""refraction"": 1.5, ""birefringence"": 0.01}}"
Cobaltpentlandite,Co9S8,"{""Co"": 9.0, ""S"": 8.0}",786.85,#A9A9A9,cubic,"{""system"": ""cubic"", ""scale"": [1.0, 1.0, 1.0], ""optical"": {""transparent"": 0, ""refraction"": 0.0, ""birefringence"": 0.0}}"
Cobalttsumcorite,PbCo2(AsO4)2·2H2O,"{""Pb"": 1.0, ""Co"": 2.0, ""As"": 2.0, ""O"": 10.0, ""H"": 4.0}",638.93,#FFFFFF,monoclinic,"{""system"": ""monoclinic"", ""scale"": [0.7, 1.0, 1.3], ""optical"": {""transparent"": 1, ""refraction"": 1.5, ""birefringence"": 0.01}}"
Coccinite,HgI2,"{""Hg"": 1.0, ""I"": 2.0}",454.39,#FFFFFF,tetragonal,"{""system"": ""tetragonal"", ""scale"": [1.0, 1.0, 1.4], ""optical"": {""transparent"": 1, ""refraction"": 1.5, ""birefringence"": 0.01}}"
Cochromite,CoCr2O4,"{""Co"": 1.0, ""Cr"": 2.0, ""O"": 4.0}",226.93,#4169E1,cubic,"{""system"": ""cubic"", ""scale"": [1.0, 1.0, 1.0], ""optical"": {""transparent"": 0, ""refraction"": 0.0, ""birefringence"": 0.0}}"
Coconinoite,Fe3+2Al2(UO2)2(PO4)4(SO4)(OH)2·20H2O,"{""Fe"": 2.0, ""Al"": 2.0, ""U"": 2.0, ""O"": 46.0, ""P"": 4.0, ""S"": 1.0, ""H"": 42.0}",1576.0,#556B2F,monoclinic,"{""system"": ""monoclinic"", ""scale"": [0.7, 1.0, 1.3], ""optical"": {""transparent"": 0, ""refraction"": 0.0, ""birefringence"": 0.0}}"
Coesite,SiO2,"{""Si"": 1.0, ""O"": 2.0}",60.09,#FFFFFF,monoclinic,"{""system"": ""monoclinic"", ""scale"": [0.7, 1.0, 1.3], ""optical"": {""transparent"": 1, ""refraction"": 1.5, ""birefringence"": 0.01}}"
Cohenite,CFe3,"{""C"": 1.0, ""Fe"": 3.0}",179.56,#8B4513,orthorhombic,"{""system"": ""orthorhombic"", ""scale"": [0.8, 1.0, 1.2], ""optical"": {""transparent"": 0, ""refraction"": 0.0, ""birefringence"": 0.0}}"
Colchesterite,Bi3+2Mo6+2O9,"{""Bi"": 2.0, ""Mo"": 2.0, ""O"": 9.0}",753.86,#D2B48C,monoclinic,"{""system"": ""monoclinic"", ""scale"": [0.7, 1.0, 1.3], ""optical"": {""transparent"": 0, ""refraction"": 0.0, ""birefringence"": 0.0}}"
Coldwellite,Pd3Ag2S,"{""Pd"": 3.0, ""Ag"": 2.0, ""S"": 1.0}",567.06,#A9A9A9,,"{""system"": """", ""scale"": [1.0, 1.0, 1.0], ""optical"": {""transparent"": 0, ""refraction"": 0.0, ""birefringence"": 0.0}}"
Colemanite,CaB3O4(OH)3·H2O,"{""Ca"": 1.0, ""B"": 3.0, ""O"": 8.0, ""H"": 5.0}",205.55,#FFFFFF,monoclinic,"{""system"": ""monoclinic"", ""scale"": [0.7, 1.0, 1.3], ""optical"": {""transparent"": 1, ""refraction"": 1.5, ""birefringence"": 0.01}}"
Colimaite,K3VS4,"{""K"": 3.0, ""V"": 1.0, ""S"": 4.0}",296.48,#A9A9A9,orthorhombic,"{""system"": ""orthorhombic"", ""scale"": [0.8, 1.0, 1.2], ""optical"": {""transparent"": 0, ""refraction"": 0.0, ""birefringence"": 0.0}}"
Colinowensite,BaCuSi2O6,"{""Ba"": 1.0, ""Cu"": 1.0, ""Si"": 2.0, ""O"": 6.0}",353.06,#FFFFFF,tetragonal,"{""system"": ""tetragonal"", ""scale"": [1.0, 1.0, 1.4], ""optical"": {""transparent"": 1, ""refraction"": 1.5, ""birefringence"": 0.01}}"
Collinsite,Ca2Mg(PO4)2·2H2O,"{""Ca"": 2.0, ""Mg"": 1.0, ""P"": 2.0, ""O"": 10.0, ""H"": 4.0}",330.44,#FFFFFF,triclinic,"{""system"": ""triclinic"", ""scale"": [0.7, 1.0, 1.3], ""optical"": {""transparent"": 1, ""refraction"": 1.5, ""birefringence"": 0.01}}"
Colomeraite,NaTi3+Si2O6,"{""Na"": 1.0, ""Ti"": 1.0, ""Si"": 2.0, ""O"": 6.0}",223.04,#FFFFFF,monoclinic,"{""system"": ""monoclinic"", ""scale"": [0.7, 1.0, 1.3], ""optical"": {""transparent"": 1, ""refraction"": 1.5, ""birefringence"": 0.01}}"
Coloradoite,HgTe,"{""Hg"": 1.0, ""Te"": 1.0}",328.19,#FFFFFF,cubic,"{""system"": ""cubic"", ""scale"": [1.0, 1.0, 1.0], ""optical"": {""transparent"": 1, ""refraction"": 1.5, ""birefringence"": 0.0}}"
Colquiriite,CaLiAlF6,"{""Ca"": 1.0, ""Li"": 1.0, ""Al"": 1.0, ""F"": 6.0}",188.0,#FFFFFF,hexagonal,"{""system"": ""hexagonal"", ""scale"": [1.0, 1.0, 1.6], ""optical"": {""transparent"": 1, ""refraction"": 1.5, ""birefringence"": 0.01}}"
Columbite-(Fe),Fe2+Nb2O6,"{""Fe"": 1.0, ""Nb"": 2.0, ""O"": 6.0}",337.67,#8B4513,orthorhombic,"{""system"": ""orthorhombic"", ""scale"": [0.8, 1.0, 1.2], ""optical"": {""transparent"": 0, ""refraction"": 0.0, ""birefringence"": 0.0}}"
Columbite-(Mg),MgNb2O6,"{""Mg"": 1.0, ""Nb"": 2.0, ""O"": 6.0}",306.13,#FFFFFF,orthorhombic,"{""system"": ""orthorhombic"", ""scale"": [0.8, 1.0, 1.2], ""optical"": {""transparent"": 1, ""refraction"": 1.5, ""birefringence"": 0.01}}"
Colusite,Cu13VAs3S16,"{""Cu"": 13.0, ""V"": 1.0, ""As"": 3.0, ""S"": 16.0}",1614.81,#FFD700,cubic,"{""system"": ""cubic"", ""scale"": [1.0, 1.0, 1.0], ""optical"": {""transparent"": 0, ""refraction"": 0.0, ""birefringence"": 0.0}}"
Comblainite,Ni4Co3+2(OH)12(CO3)·3H2O,"{""Ni"": 4.0, ""Co"": 2.0, ""O"": 18.0, ""H"": 18.0, ""C"": 1.0}",670.77,#FFFFFF,hexagonal,"{""system"": ""hexagonal"", ""scale"": [1.0, 1.0, 1.6], ""optical"": {""transparent"": 1, ""refraction"": 1.5, ""birefringence"": 0.01}}"
Compreignacite,K2(UO2)6O4(OH)6·7H2O,"{""K"": 2.0, ""U"": 6.0, ""O"": 29.0, ""H"": 20.0}",1990.54,#FFFFFF,orthorhombic,"{""system"": ""orthorhombic"", ""scale"": [0.8, 1.0, 1.2], ""optical"": {""transparent"": 1, ""refraction"": 1.5, ""birefringence"": 0.01}}"
Congolite,Fe2+3B7O13Cl,"{""Fe"": 3.0, ""B"": 7.0, ""O"": 13.0, ""Cl"": 1.0}",486.67,#556B2F,hexagonal,"{""system"": ""hexagonal"", ""scale"": [1.0, 1.0, 1.6], ""optical"": {""transparent"": 0, ""refraction"": 0.0, ""birefringence"": 0.0}}"
Conichalcite,CaCu(AsO4)(OH),"{""Ca"": 1.0, ""Cu"": 1.0, ""As"": 1.0, ""O"": 5.0, ""H"": 1.0}",259.56,#FFFFFF,orthorhombic,"{""system"": ""orthorhombic"", ""scale"": [0.8, 1.0, 1.2], ""optical"": {""transparent"": 1, ""refraction"": 1.5, ""birefringence"": 0.01}}"
Connellite,Cu36(SO4)(OH)62Cl8·6H2O,"{""Cu"": 36.0, ""S"": 1.0, ""O"": 72.0, ""H"": 74.0, ""Cl"": 8.0}",3830.05,#FFFFFF,hexagonal,"{""system"": ""hexagonal"", ""scale"": [1.0, 1.0, 1.6], ""optical"": {""transparent"": 1, ""refraction"": 1.5, ""birefringence"": 0.01}}"
Cooperite,PtS,"{""Pt"": 1.0, ""S"": 1.0}",227.14,#A9A9A9,tetragonal,"{""system"": ""tetragonal"", ""scale"": [1.0, 1.0, 1.4], ""optical"": {""transparent"": 0, ""refraction"": 0.0, ""birefringence"": 0.0}}"
Coparsite,Cu2+4O2(AsO4)Cl,"{""Cu"": 4.0, ""O"": 6.0, ""As"": 1.0, ""Cl"": 1.0}",460.57,#FFFFFF,orthorhombic,"{""system"": ""orthorhombic"", ""scale"": [0.8, 1.0, 1.2], ""optical"": {""transparent"": 1, ""refraction"": 1.5, ""birefringence"": 0.01}}"
Copiapite,Fe2+Fe3+4(SO4)6(OH)2·20H2O,"{""Fe"": 5.0, ""S"": 6.0, ""O"": 46.0, ""H"": 42.0}",1249.95,#556B2F,triclinic,"{""system"": ""triclinic"", ""scale"": [0.7, 1.0, 1.3], ""optical"": {""transparent"": 0, ""refraction"": 0.0, ""birefringence"": 0.0}}"
Copper,Cu,"{""Cu"": 1.0}",63.55,#00BFFF,cubic,"{""system"": ""cubic"", ""scale"": [1.0, 1.0, 1.0], ""optical"": {""transparent"": 0, ""refraction"": 0.0, ""birefringence"": 0.0}}"
Coquimbite,AlFe3(SO4)6(H2O)12·6H2O,"{""Al"": 1.0, ""Fe"": 3.0, ""S"": 6.0, ""O"": 42.0, ""H"": 36.0}",1095.18,#556B2F,hexagonal,"{""system"": ""hexagonal"", ""scale"": [1.0, 1.0, 1.6], ""optical"": {""transparent"": 0, ""refraction"": 0.0, ""birefringence"": 0.0}}"
Corderoite,Hg3S2Cl2,"{""Hg"": 3.0, ""S"": 2.0, ""Cl"": 2.0}",736.79,#A9A9A9,cubic,"{""system"": ""cubic"", ""scale"": [1.0, 1.0, 1.0], ""optical"": {""transparent"": 0, ""refraction"": 0.0, ""birefringence"": 0.0}}"
Cordierite,Mg2Al4Si5O18,"{""Mg"": 2.0, ""Al"": 4.0, ""Si"": 5.0, ""O"": 18.0}",584.99,#FFFFFF,orthorhombic,"{""system"": ""orthorhombic"", ""scale"": [0.8, 1.0, 1.2], ""optical"": {""transparent"": 1, ""refraction"": 1.5, ""birefringence"": 0.01}}"
Cordylite-(La),NaCaBa2La3Sr(CO3)8F2,"{""Na"": 1.0, ""Ca"": 1.0, ""Ba"": 2.0, ""La"": 3.0, ""Sr"": 1.0, ""C"": 8.0, ""O"": 24.0, ""F"": 2.0}",1360.16,#FFFFFF,hexagonal,"{""system"": ""hexagonal"", ""scale"": [1.0, 1.0, 1.6], ""optical"": {""transparent"": 1, ""refraction"": 1.5, ""birefringence"": 0.01}}"
Corkite,PbFe3+3(SO4)(PO4)(OH)6,"{""Pb"": 1.0, ""Fe"": 3.0, ""S"": 1.0, ""O"": 14.0, ""P"": 1.0, ""H"": 6.0}",667.83,#556B2F,hexagonal,"{""system"": ""hexagonal"", ""scale"": [1.0, 1.0, 1.6], ""optical"": {""transparent"": 0, ""refraction"": 0.0, ""birefringence"": 0.0}}"
Cornetite,Cu3(PO4)(OH)3,"{""Cu"": 3.0, ""P"": 1.0, ""O"": 7.0, ""H"": 3.0}",336.64,#FFFFFF,orthorhombic,"{""system"": ""orthorhombic"", ""scale"": [0.8, 1.0, 1.2], ""optical"": {""transparent"": 1, ""refraction"": 1.5, ""birefringence"": 0.01}}"
Cornubite,Cu5(AsO4)2(OH)4,"{""Cu"": 5.0, ""As"": 2.0, ""O"": 12.0, ""H"": 4.0}",663.62,#FFFFFF,triclinic,"{""system"": ""triclinic"", ""scale"": [0.7, 1.0, 1.3], ""optical"": {""transparent"": 1, ""refraction"": 1.5, ""birefringence"": 0.01}}"
Cornwallite,Cu5(AsO4)2(OH)4,"{""Cu"": 5.0, ""As"": 2.0, ""O"": 12.0, ""H"": 4.0}",663.62,#FFFFFF,monoclinic,"{""system"": ""monoclinic"", ""scale"": [0.7, 1.0, 1.3], ""optical"": {""transparent"": 1, ""refraction"": 1.5, ""birefringence"": 0.01}}"
Cortesognoite,CaV2Si2O7(OH)2·H2O,"{""Ca"": 1.0, ""V"": 2.0, ""Si"": 2.0, ""O"": 10.0, ""H"": 4.0}",362.17,#FFFFFF,orthorhombic,"{""system"": ""orthorhombic"", ""scale"": [0.8, 1.0, 1.2], ""optical"": {""transparent"": 1, ""refraction"": 1.5, ""birefringence"": 0.01}}"
Corundum,Al2O3,"{""Al"": 2.0, ""O"": 3.0}",101.96,#FFFFFF,hexagonal,"{""system"": ""hexagonal"", ""scale"": [1.0, 1.0, 1.6], ""optical"": {""transparent"": 1, ""refraction"": 1.5, ""birefringence"": 0.01}}"
Cosalite,Pb2Bi2S5,"{""Pb"": 2.0, ""Bi"": 2.0, ""S"": 5.0}",992.66,#708090,orthorhombic,"{""system"": ""orthorhombic"", ""scale"": [0.8, 1.0, 1.2], ""optical"": {""transparent"": 0, ""refraction"": 0.0, ""birefringence"": 0.0}}"
Coskrenite-(Ce),Ce2(SO4)2(C2O4)·8H2O,"{""Ce"": 2.0, ""S"": 2.0, ""O"": 20.0, ""C"": 2.0, ""H"": 16.0}",704.51,#FFFFFF,triclinic,"{""system"": ""triclinic"", ""scale"": [0.7, 1.0, 1.3], ""optical"": {""transparent"": 1, ""refraction"": 1.5, ""birefringence"": 0.01}}"
Costibite,CoSbS,"{""Co"": 1.0, ""Sb"": 1.0, ""S"": 1.0}",212.75,#A9A9A9,orthorhombic,"{""system"": ""orthorhombic"", ""scale"": [0.8, 1.0, 1.2], ""optical"": {""transparent"": 0, ""refraction"": 0.0, ""birefringence"": 0.0}}"
Cotunnite,PbCl2,"{""Pb"": 1.0, ""Cl"": 2.0}",278.1,#FFFFFF,orthorhombic,"{""system"": ""orthorhombic"", ""scale"": [0.8, 1.0, 1.2], ""optical"": {""transparent"": 1, ""refraction"": 1.5, ""birefringence"": 0.01}}"
Coulsonite,Fe2+V3+2O4,"{""Fe"": 1.0, ""V"": 2.0, ""O"": 4.0}",221.73,#8B4513,cubic,"{""system"": ""cubic"", ""scale"": [1.0, 1.0, 1.0], ""optical"": {""transparent"": 0, ""refraction"": 0.0, ""birefringence"": 0.0}}"
Cousinite,MgU4+2(MoO4)2(OH)6·2H2O (?),"{""Mg"": 1.0, ""U"": 2.0, ""Mo"": 2.0, ""O"": 16.0, ""H"": 10.0}",958.35,#FFFFFF,,"{""system"": """", ""scale"": [1.0, 1.0, 1.0], ""optical"": {""transparent"": 1, ""refraction"": 1.5, ""birefringence"": 0.01}}"
Covellite,CuS,"{""Cu"": 1.0, ""S"": 1.0}",95.61,#A9A9A9,hexagonal,"{""system"": ""hexagonal"", ""scale"": [1.0, 1.0, 1.6], ""optical"": {""transparent"": 0, ""refraction"": 0.0, ""birefringence"": 0.0}}"
Cowlesite,Ca(Al2Si3)O10·5-6H2O,"{""Ca"": 1.0, ""Al"": 2.0, ""Si"": 3.0, ""O"": 16.0, ""H"": 12.0}",446.41,#FFFFFF,orthorhombic,"{""system"": ""orthorhombic"", ""scale"": [0.8, 1.0, 1.2], ""optical"": {""transparent"": 1, ""refraction"": 1.5, ""birefringence"": 0.01}}"
Coyoteite,NaFe3S5·2H2O,"{""Na"": 1.0, ""Fe"": 3.0, ""S"": 5.0, ""H"": 4.0, ""O"": 2.0}",386.87,#556B2F,triclinic,"{""system"": ""triclinic"", ""scale"": [0.7, 1.0, 1.3], ""optical"": {""transparent"": 0, ""refraction"": 0.0, ""birefringence"": 0.0}}"
Crandallite,CaAl3(PO4)(PO3OH)(OH)6,"{""Ca"": 1.0, ""Al"": 3.0, ""P"": 2.0, ""O"": 14.0, ""H"": 7.0}",414.02,#FFFFFF,hexagonal,"{""system"": ""hexagonal"", ""scale"": [1.0, 1.0, 1.6], ""optical"": {""transparent"": 1, ""refraction"": 1.5, ""birefringence"": 0.01}}"
Cranswickite,Mg(SO4)·4H2O,"{""Mg"": 1.0, ""S"": 1.0, ""O"": 8.0, ""H"": 8.0}",192.43,#FFFFFF,triclinic,"{""system"": ""triclinic"", ""scale"": [0.7, 1.0, 1.3], ""optical"": {""transparent"": 1, ""refraction"": 1.5, ""birefringence"": 0.01}}"
Crawfordite,Na3Sr(PO4)(CO3),"{""Na"": 3.0, ""Sr"": 1.0, ""P"": 1.0, ""O"": 7.0, ""C"": 1.0}",311.57,#FFFFFF,monoclinic,"{""system"": ""monoclinic"", ""scale"": [0.7, 1.0, 1.3], ""optical"": {""transparent"": 1, ""refraction"": 1.5, ""birefringence"": 0.01}}"