name,formula,elements,density,color,crystal_system,dna
Loomisite,Ba[Be2P2O8]·H2O,"{""Ba"": 1.0, ""Be"": 2.0, ""P"": 2.0, ""O"": 9.0, ""H"": 2.0}",363.31,#FFFFFF,monoclinic,"{""system"": ""monoclinic"", ""scale"": [0.7, 1.0, 1.3], ""optical"": {""transparent"": 1, ""refraction"": 1.5, ""birefringence"": 0.01}}"
Lopatkaite,Pb5Sb3AsS11,"{""Pb"": 5.0, ""Sb"": 3.0, ""As"": 1.0, ""S"": 11.0}",1828.86,#708090,monoclinic,"{""system"": ""monoclinic"", ""scale"": [0.7, 1.0, 1.3], ""optical"": {""transparent"": 0, ""refraction"": 0.0, ""birefringence"": 0.0}}"
Lopezite,K2Cr2O7,"{""K"": 2.0, ""Cr"": 2.0, ""O"": 7.0}",294.2,#228B22,triclinic,"{""system"": ""triclinic"", ""scale"": [0.7, 1.0, 1.3], ""optical"": {""transparent"": 0, ""refraction"": 0.0, ""birefringence"": 0.0}}"
Lorandite,TlAsS2,"{""Tl"": 1.0, ""As"": 1.0, ""S"": 2.0}",343.42,#FFD700,monoclinic,"{""system"": ""monoclinic"", ""scale"": [0.7, 1.0, 1.3], ""optical"": {""transparent"": 0, ""refraction"": 0.0, ""birefringence"": 0.0}}"
Lorenzenite,Na2Ti2O3(Si2O6),"{""Na"": 2.0, ""Ti"": 2.0, ""O"": 9.0, ""Si"": 2.0}",341.9,#FFFFFF,orthorhombic,"{""system"": ""orthorhombic"", ""scale"": [0.8, 1.0, 1.2], ""optical"": {""transparent"": 1, ""refraction"": 1.5, ""birefringence"": 0.01}}"
Loudounite,NaCa5Zr4Si16O40(OH)11·8H2O,"{""Na"": 1.0, ""Ca"": 5.0, ""Zr"": 4.0, ""Si"": 16.0, ""O"": 59.0, ""H"": 27.0}",2008.93,#FFFFFF,,"{""system"": """", ""scale"": [1.0, 1.0, 1.0], ""optical"": {""transparent"": 1, ""refraction"": 1.5, ""birefringence"": 0.01}}"
Loughlinite,Na2Mg3Si6O16·8H2O,"{""Na"": 2.0, ""Mg"": 3.0, ""Si"": 6.0, ""O"": 24.0, ""H"": 16.0}",687.58,#FFFFFF,,"{""system"": """", ""scale"": [1.0, 1.0, 1.0], ""optical"": {""transparent"": 1, ""refraction"": 1.5, ""birefringence"": 0.01}}"
Louisfuchsite,Ca2(Mg4Ti2)(Al4Si2)O20,"{""Ca"": 2.0, ""Mg"": 4.0, ""Ti"": 2.0, ""Al"": 4.0, ""Si"": 2.0, ""O"": 20.0}",757.24,#FFFFFF,triclinic,"{""system"": ""triclinic"", ""scale"": [0.7, 1.0, 1.3], ""optical"": {""transparent"": 1, ""refraction"": 1.5, ""birefringence"": 0.01}}"
Lovdarite,K2Na6Be4Si14O36·9H2O,"{""K"": 2.0, ""Na"": 6.0, ""Be"": 4.0, ""Si"": 14.0, ""O"": 45.0, ""H"": 18.0}",1383.58,#FFFFFF,orthorhombic,"{""system"": ""orthorhombic"", ""scale"": [0.8, 1.0, 1.2], ""optical"": {""transparent"": 1, ""refraction"": 1.5, ""birefringence"": 0.01}}"
Lovozerite,Na3CaZrSi6O15(OH)3,"{""Na"": 3.0, ""Ca"": 1.0, ""Zr"": 1.0, ""Si"": 6.0, ""O"": 18.0, ""H"": 3.0}",659.83,#FFFFFF,hexagonal,"{""system"": ""hexagonal"", ""scale"": [1.0, 1.0, 1.6], ""optical"": {""transparent"": 1, ""refraction"": 1.5, ""birefringence"": 0.01}}"
Loweite,Na12Mg7(SO4)13·15H2O,"{""Na"": 12.0, ""Mg"": 7.0, ""S"": 13.0, ""O"": 67.0, ""H"": 30.0}",1965.07,#FFFFFF,hexagonal,"{""system"": ""hexagonal"", ""scale"": [1.0, 1.0, 1.6], ""optical"": {""transparent"": 1, ""refraction"": 1.5, ""birefringence"": 0.01}}"
Luanheite,Ag3Hg,"{""Ag"": 3.0, ""Hg"": 1.0}",524.2,#C0C0C0,hexagonal,"{""system"": ""hexagonal"", ""scale"": [1.0, 1.0, 1.6], ""optical"": {""transparent"": 0, ""refraction"": 0.0, ""birefringence"": 0.0}}"
Luberoite,Pt5Se4,"{""Pt"": 5.0, ""Se"": 4.0}",1291.24,#FFFFFF,monoclinic,"{""system"": ""monoclinic"", ""scale"": [0.7, 1.0, 1.3], ""optical"": {""transparent"": 1, ""refraction"": 1.5, ""birefringence"": 0.01}}"
Lucasite-(Ce),CeTi2O5(OH),"{""Ce"": 1.0, ""Ti"": 2.0, ""O"": 6.0, ""H"": 1.0}",332.87,#FFFFFF,monoclinic,"{""system"": ""monoclinic"", ""scale"": [0.7, 1.0, 1.3], ""optical"": {""transparent"": 1, ""refraction"": 1.5, ""birefringence"": 0.01}}"
Lucasite-(La),LaTi2O5(OH),"{""La"": 1.0, ""Ti"": 2.0, ""O"": 6.0, ""H"": 1.0}",331.66,#FFFFFF,monoclinic,"{""system"": ""monoclinic"", ""scale"": [0.7, 1.0, 1.3], ""optical"": {""transparent"": 1, ""refraction"": 1.5, ""birefringence"": 0.01}}"
Lucchesiite,CaFe2+3Al6(Si6O18)(BO3)3(OH)3O,"{""Ca"": 1.0, ""Fe"": 3.0, ""Al"": 6.0, ""Si"": 6.0, ""O"": 31.0, ""B"": 3.0, ""H"": 3.0}",1069.5,#556B2F,hexagonal,"{""system"": ""hexagonal"", ""scale"": [1.0, 1.0, 1.6], ""optical"": {""transparent"": 0, ""refraction"": 0.0, ""birefringence"": 0.0}}"
Luddenite,Cu2Pb2Si5O14·14H2O,"{""Cu"": 2.0, ""Pb"": 2.0, ""Si"": 5.0, ""O"": 28.0, ""H"": 28.0}",1158.17,#FFFFFF,monoclinic,"{""system"": ""monoclinic"", ""scale"": [0.7, 1.0, 1.3], ""optical"": {""transparent"": 1, ""refraction"": 1.5, ""birefringence"": 0.01}}"
Ludjibaite,Cu5(PO4)2(OH)4,"{""Cu"": 5.0, ""P"": 2.0, ""O"": 12.0, ""H"": 4.0}",575.72,#FFFFFF,triclinic,"{""system"": ""triclinic"", ""scale"": [0.7, 1.0, 1.3], ""optical"": {""transparent"": 1, ""refraction"": 1.5, ""birefringence"": 0.01}}"
Ludlamite,Fe2+3(PO4)2·4H2O,"{""Fe"": 3.0, ""P"": 2.0, ""O"": 12.0, ""H"": 8.0}",429.55,#556B2F,monoclinic,"{""system"": ""monoclinic"", ""scale"": [0.7, 1.0, 1.3], ""optical"": {""transparent"": 0, ""refraction"": 0.0, ""birefringence"": 0.0}}"
Ludlockite,PbFe3+4As3+10O22,"{""Pb"": 1.0, ""Fe"": 4.0, ""As"": 10.0, ""O"": 22.0}",1531.8,#556B2F,triclinic,"{""system"": ""triclinic"", ""scale"": [0.7, 1.0, 1.3], ""optical"": {""transparent"": 0, ""refraction"": 0.0, ""birefringence"": 0.0}}"
Ludwigite,Mg2Fe3+O2(BO3),"{""Mg"": 2.0, ""Fe"": 1.0, ""O"": 5.0, ""B"": 1.0}",195.28,#556B2F,orthorhombic,"{""system"": ""orthorhombic"", ""scale"": [0.8, 1.0, 1.2], ""optical"": {""transparent"": 0, ""refraction"": 0.0, ""birefringence"": 0.0}}"
Lueshite,NaNbO3,"{""Na"": 1.0, ""Nb"": 1.0, ""O"": 3.0}",163.9,#FFFFFF,orthorhombic,"{""system"": ""orthorhombic"", ""scale"": [0.8, 1.0, 1.2], ""optical"": {""transparent"": 1, ""refraction"": 1.5, ""birefringence"": 0.01}}"
Luetheite,CuAl(AsO4)(OH)2,"{""Cu"": 1.0, ""Al"": 1.0, ""As"": 1.0, ""O"": 6.0, ""H"": 2.0}",263.47,#FFFFFF,monoclinic,"{""system"": ""monoclinic"", ""scale"": [0.7, 1.0, 1.3], ""optical"": {""transparent"": 1, ""refraction"": 1.5, ""birefringence"": 0.01}}"
Lukechangite-(Ce),Na3Ce2(CO3)4F,"{""Na"": 3.0, ""Ce"": 2.0, ""C"": 4.0, ""O"": 12.0, ""F"": 1.0}",608.25,#FFFFFF,hexagonal,"{""system"": ""hexagonal"", ""scale"": [1.0, 1.0, 1.6], ""optical"": {""transparent"": 1, ""refraction"": 1.5, ""birefringence"": 0.01}}"
Lukkulaisvaaraite,Pd14Ag2Te9,"{""Pd"": 14.0, ""Ag"": 2.0, ""Te"": 9.0}",2854.02,#C0C0C0,tetragonal,"{""system"": ""tetragonal"", ""scale"": [1.0, 1.0, 1.4], ""optical"": {""transparent"": 0, ""refraction"": 0.0, ""birefringence"": 0.0}}"
Lulzacite,Sr2Fe2+3Al4(PO4)4(OH)10,"{""Sr"": 2.0, ""Fe"": 3.0, ""Al"": 4.0, ""P"": 4.0, ""O"": 26.0, ""H"": 10.0}",1000.67,#556B2F,triclinic,"{""system"": ""triclinic"", ""scale"": [0.7, 1.0, 1.3], ""optical"": {""transparent"": 0, ""refraction"": 0.0, ""birefringence"": 0.0}}"
Lumsdenite,NaCa3Mg2(As3+V4+2V5+10As5+6O51)·45H2O,"{""Na"": 1.0, ""Ca"": 3.0, ""Mg"": 2.0, ""As"": 7.0, ""V"": 12.0, ""O"": 96.0, ""H"": 90.0}",2954.29,#FFFFFF,triclinic,"{""system"": ""triclinic"", ""scale"": [0.7, 1.0, 1.3], ""optical"": {""transparent"": 1, ""refraction"": 1.5, ""birefringence"": 0.01}}"
Luneburgite,Mg3[B2(OH)6(PO4)2]·6H2O,"{""Mg"": 3.0, ""B"": 2.0, ""O"": 20.0, ""H"": 18.0, ""P"": 2.0}",494.63,#FFFFFF,triclinic,"{""system"": ""triclinic"", ""scale"": [0.7, 1.0, 1.3], ""optical"": {""transparent"": 1, ""refraction"": 1.5, ""birefringence"": 0.01}}"
Luogufengite,Fe2O3,"{""Fe"": 2.0, ""O"": 3.0}",159.7,#8B4513,orthorhombic,"{""system"": ""orthorhombic"", ""scale"": [0.8, 1.0, 1.2], ""optical"": {""transparent"": 0, ""refraction"": 0.0, ""birefringence"": 0.0}}"
Lussierite,Na10[(UO2)(SO4)4](SO4)2(H2O)3,"{""Na"": 10.0, ""U"": 1.0, ""O"": 29.0, ""S"": 6.0, ""H"": 6.0}",1130.34,#FFFFFF,monoclinic,"{""system"": ""monoclinic"", ""scale"": [0.7, 1.0, 1.3], ""optical"": {""transparent"": 1, ""refraction"": 1.5, ""birefringence"": 0.01}}"
Luxembourgite,AgCuPbBi4Se8,"{""Ag"": 1.0, ""Cu"": 1.0, ""Pb"": 1.0, ""Bi"": 4.0, ""Se"": 8.0}",1846.22,#FFFFFF,monoclinic,"{""system"": ""monoclinic"", ""scale"": [0.7, 1.0, 1.3], ""optical"": {""transparent"": 1, ""refraction"": 1.5, ""birefringence"": 0.01}}"
Luzonite,Cu3AsS4,"{""Cu"": 3.0, ""As"": 1.0, ""S"": 4.0}",393.81,#FFD700,tetragonal,"{""system"": ""tetragonal"", ""scale"": [1.0, 1.0, 1.4], ""optical"": {""transparent"": 0, ""refraction"": 0.0, ""birefringence"": 0.0}}"
Lyonsite,Cu2+3Fe3+4(VO4)6,"{""Cu"": 3.0, ""Fe"": 4.0, ""V"": 6.0, ""O"": 24.0}",1103.69,#556B2F,orthorhombic,"{""system"": ""orthorhombic"", ""scale"": [0.8, 1.0, 1.2], ""optical"": {""transparent"": 0, ""refraction"": 0.0, ""birefringence"": 0.0}}"
Macaulayite,Fe3+24Si4O43(OH)2,"{""Fe"": 24.0, ""Si"": 4.0, ""O"": 45.0, ""H"": 2.0}",2174.78,#556B2F,monoclinic,"{""system"": ""monoclinic"", ""scale"": [0.7, 1.0, 1.3], ""optical"": {""transparent"": 0, ""refraction"": 0.0, ""birefringence"": 0.0}}"
Macdonaldite,BaCa4Si16O36(OH)2·10H2O,"{""Ba"": 1.0, ""Ca"": 4.0, ""Si"": 16.0, ""O"": 48.0, ""H"": 22.0}",1537.27,#FFFFFF,orthorhombic,"{""system"": ""orthorhombic"", ""scale"": [0.8, 1.0, 1.2], ""optical"": {""transparent"": 1, ""refraction"": 1.5, ""birefringence"": 0.01}}"
Macedonite,PbTiO3,"{""Pb"": 1.0, ""Ti"": 1.0, ""O"": 3.0}",303.07,#FFFFFF,orthorhombic,"{""system"": ""orthorhombic"", ""scale"": [0.8, 1.0, 1.2], ""optical"": {""transparent"": 1, ""refraction"": 1.5, ""birefringence"": 0.01}}"
Machatschkiite,Ca6(AsO4)(AsO3OH)3(PO4)·15H2O,"{""Ca"": 6.0, ""As"": 4.0, ""O"": 35.0, ""H"": 33.0, ""P"": 1.0}",1164.39,#FFFFFF,hexagonal,"{""system"": ""hexagonal"", ""scale"": [1.0, 1.0, 1.6], ""optical"": {""transparent"": 1, ""refraction"": 1.5, ""birefringence"": 0.01}}"
Machiite,Al2Ti3O9,"{""Al"": 2.0, ""Ti"": 3.0, ""O"": 9.0}",341.57,#FFFFFF,monoclinic,"{""system"": ""monoclinic"", ""scale"": [0.7, 1.0, 1.3], ""optical"": {""transparent"": 1, ""refraction"": 1.5, ""birefringence"": 0.01}}"
Macivorite,(NH4)3Al5(PO3OH)6(PO4)2·18H2O,"{""N"": 3.0, ""H"": 54.0, ""Al"": 5.0, ""P"": 8.0, ""O"": 50.0}",1279.12,#FFFFFF,hexagonal,"{""system"": ""hexagonal"", ""scale"": [1.0, 1.0, 1.6], ""optical"": {""transparent"": 1, ""refraction"": 1.5, ""birefringence"": 0.01}}"
Mackayite,Fe3+Te4+2O5(OH),"{""Fe"": 1.0, ""Te"": 2.0, ""O"": 6.0, ""H"": 1.0}",408.06,#556B2F,tetragonal,"{""system"": ""tetragonal"", ""scale"": [1.0, 1.0, 1.4], ""optical"": {""transparent"": 0, ""refraction"": 0.0, ""birefringence"": 0.0}}"
Mackinawite,FeS,"{""Fe"": 1.0, ""S"": 1.0}",87.91,#DAA520,tetragonal,"{""system"": ""tetragonal"", ""scale"": [1.0, 1.0, 1.4], ""optical"": {""transparent"": 0, ""refraction"": 0.0, ""birefringence"": 0.0}}"
Macphersonite,Pb4(SO4)(CO3)2(OH)2,"{""Pb"": 4.0, ""S"": 1.0, ""O"": 12.0, ""C"": 2.0, ""H"": 2.0}",1078.9,#FFFFFF,orthorhombic,"{""system"": ""orthorhombic"", ""scale"": [0.8, 1.0, 1.2], ""optical"": {""transparent"": 1, ""refraction"": 1.5, ""birefringence"": 0.01}}"
Macquartite,Cu2Pb7(CrO4)4(SiO4)2(OH)2,"{""Cu"": 2.0, ""Pb"": 7.0, ""Cr"": 4.0, ""O"": 26.0, ""Si"": 2.0, ""H"": 2.0}",2259.7,#FFFFFF,monoclinic,"{""system"": ""monoclinic"", ""scale"": [0.7, 1.0, 1.3], ""optical"": {""transparent"": 1, ""refraction"": 1.5, ""birefringence"": 0.01}}"
Madeiraite,Na2Ca2Fe2Zr2(Si2O7)2O2F2,"{""Na"": 2.0, ""Ca"": 2.0, ""Fe"": 2.0, ""Zr"": 2.0, ""Si"": 4.0, ""O"": 16.0, ""F"": 2.0}",826.64,#556B2F,monoclinic,"{""system"": ""monoclinic"", ""scale"": [0.7, 1.0, 1.3], ""optical"": {""transparent"": 0, ""refraction"": 0.0, ""birefringence"": 0.0}}"
Magadiite,Na2Si14O28(OH)2·8H2O,"{""Na"": 2.0, ""Si"": 14.0, ""O"": 38.0, ""H"": 18.0}",1065.38,#FFFFFF,monoclinic,"{""system"": ""monoclinic"", ""scale"": [0.7, 1.0, 1.3], ""optical"": {""transparent"": 1, ""refraction"": 1.5, ""birefringence"": 0.01}}"
Magbasite,KBaFe3+Mg7Si8O22(OH)2F6,"{""K"": 1.0, ""Ba"": 1.0, ""Fe"": 1.0, ""Mg"": 7.0, ""Si"": 8.0, ""O"": 24.0, ""H"": 2.0, ""F"": 6.0}",1127.19,#556B2F,orthorhombic,"{""system"": ""orthorhombic"", ""scale"": [0.8, 1.0, 1.2], ""optical"": {""transparent"": 0, ""refraction"": 0.0, ""birefringence"": 0.0}}"
Magganasite,CuFe3+3O(AsO4)3,"{""Cu"": 1.0, ""Fe"": 3.0, ""O"": 13.0, ""As"": 3.0}",663.86,#556B2F,triclinic,"{""system"": ""triclinic"", ""scale"": [0.7, 1.0, 1.3], ""optical"": {""transparent"": 0, ""refraction"": 0.0, ""birefringence"": 0.0}}"
Maghagendorfite,Na2MgFe2+Fe3+(PO4)3,"{""Na"": 2.0, ""Mg"": 1.0, ""Fe"": 2.0, ""P"": 3.0, ""O"": 12.0}",466.9,#556B2F,,"{""system"": """", ""scale"": [1.0, 1.0, 1.0], ""optical"": {""transparent"": 0, ""refraction"": 0.0, ""birefringence"": 0.0}}"
Maghrebite,MgAl2(AsO4)2(OH)2·8H2O,"{""Mg"": 1.0, ""Al"": 2.0, ""As"": 2.0, ""O"": 18.0, ""H"": 18.0}",534.25,#FFFFFF,triclinic,"{""system"": ""triclinic"", ""scale"": [0.7, 1.0, 1.3], ""optical"": {""transparent"": 1, ""refraction"": 1.5, ""birefringence"": 0.01}}"
Magnanelliite,K3Fe3+2(SO4)4(OH)(H2O)2,"{""K"": 3.0, ""Fe"": 2.0, ""S"": 4.0, ""O"": 19.0, ""H"": 5.0}",666.28,#556B2F,monoclinic,"{""system"": ""monoclinic"", ""scale"": [0.7, 1.0, 1.3], ""optical"": {""transparent"": 0, ""refraction"": 0.0, ""birefringence"": 0.0}}"
Magneliite,Ti3+2Ti4+2O7,"{""Ti"": 4.0, ""O"": 7.0}",303.48,#FFFFFF,triclinic,"{""system"": ""triclinic"", ""scale"": [0.7, 1.0, 1.3], ""optical"": {""transparent"": 1, ""refraction"": 1.5, ""birefringence"": 0.01}}"
Magnesioalterite,Mg2Fe3+4(SO4)4(C2O4)2(OH)4·17H2O,"{""Mg"": 2.0, ""Fe"": 4.0, ""S"": 4.0, ""O"": 45.0, ""C"": 4.0, ""H"": 38.0}",1206.6,#556B2F,monoclinic,"{""system"": ""monoclinic"", ""scale"": [0.7, 1.0, 1.3], ""optical"": {""transparent"": 0, ""refraction"": 0.0, ""birefringence"": 0.0}}"
Magnesio-arfvedsonite,NaNa2(Mg4Fe3+)Si8O22(OH)2,"{""Na"": 3.0, ""Mg"": 4.0, ""Fe"": 1.0, ""Si"": 8.0, ""O"": 24.0, ""H"": 2.0}",832.8,#556B2F,monoclinic,"{""system"": ""monoclinic"", ""scale"": [0.7, 1.0, 1.3], ""optical"": {""transparent"": 0, ""refraction"": 0.0, ""birefringence"": 0.0}}"
Magnesioaubertite,MgAl(SO4)2Cl·14H2O,"{""Mg"": 1.0, ""Al"": 1.0, ""S"": 2.0, ""O"": 22.0, ""Cl"": 1.0, ""H"": 28.0}",531.08,#FFFFFF,triclinic,"{""system"": ""triclinic"", ""scale"": [0.7, 1.0, 1.3], ""optical"": {""transparent"": 1, ""refraction"": 1.5, ""birefringence"": 0.01}}"
Magnesiobeltrandoite-2N3S,(Mg6Al2)(Al18Fe3+2)O38(OH)2,"{""Mg"": 6.0, ""Al"": 20.0, ""Fe"": 2.0, ""O"": 40.0, ""H"": 2.0}",1439.18,#556B2F,hexagonal,"{""system"": ""hexagonal"", ""scale"": [1.0, 1.0, 1.6], ""optical"": {""transparent"": 0, ""refraction"": 0.0, ""birefringence"": 0.0}}"
Magnesiocarpholite,MgAl2Si2O6(OH)4,"{""Mg"": 1.0, ""Al"": 2.0, ""Si"": 2.0, ""O"": 10.0, ""H"": 4.0}",298.48,#FFFFFF,orthorhombic,"{""system"": ""orthorhombic"", ""scale"": [0.8, 1.0, 1.2], ""optical"": {""transparent"": 1, ""refraction"": 1.5, ""birefringence"": 0.01}}"
Magnesiochloritoid,MgAl2O(SiO4)(OH)2,"{""Mg"": 1.0, ""Al"": 2.0, ""O"": 7.0, ""Si"": 1.0, ""H"": 2.0}",220.38,#FFFFFF,monoclinic,"{""system"": ""monoclinic"", ""scale"": [0.7, 1.0, 1.3], ""optical"": {""transparent"": 1, ""refraction"": 1.5, ""birefringence"": 0.01}}"
Magnesiochromite,MgCr2O4,"{""Mg"": 1.0, ""Cr"": 2.0, ""O"": 4.0}",192.31,#228B22,orthorhombic,"{""system"": ""orthorhombic"", ""scale"": [0.8, 1.0, 1.2], ""optical"": {""transparent"": 0, ""refraction"": 0.0, ""birefringence"": 0.0}}"
Magnesiocopiapite,MgFe3+4(SO4)6(OH)2·20H2O,"{""Mg"": 1.0, ""Fe"": 4.0, ""S"": 6.0, ""O"": 46.0, ""H"": 42.0}",1218.41,#556B2F,triclinic,"{""system"": ""triclinic"", ""scale"": [0.7, 1.0, 1.3], ""optical"": {""transparent"": 0, ""refraction"": 0.0, ""birefringence"": 0.0}}"
Magnesiocoulsonite,MgV2O4,"{""Mg"": 1.0, ""V"": 2.0, ""O"": 4.0}",190.19,#FFFFFF,cubic,"{""system"": ""cubic"", ""scale"": [1.0, 1.0, 1.0], ""optical"": {""transparent"": 1, ""refraction"": 1.5, ""birefringence"": 0.0}}"
Magnesiodumortierite,MgAl6BSi3O17(OH),"{""Mg"": 1.0, ""Al"": 6.0, ""B"": 1.0, ""Si"": 3.0, ""O"": 18.0, ""H"": 1.0}",570.28,#FFFFFF,orthorhombic,"{""system"": ""orthorhombic"", ""scale"": [0.8, 1.0, 1.2], ""optical"": {""transparent"": 1, ""refraction"": 1.5, ""birefringence"": 0.01}}"
Magnesioferrite,MgFe3+2O4,"{""Mg"": 1.0, ""Fe"": 2.0, ""O"": 4.0}",200.01,#8B4513,cubic,"{""system"": ""cubic"", ""scale"": [1.0, 1.0, 1.0], ""optical"": {""transparent"": 0, ""refraction"": 0.0, ""birefringence"": 0.0}}"
Magnesiofluckite,CaMg(AsO3OH)2(H2O)2,"{""Ca"": 1.0, ""Mg"": 1.0, ""As"": 2.0, ""O"": 10.0, ""H"": 6.0}",380.28,#FFFFFF,triclinic,"{""system"": ""triclinic"", ""scale"": [0.7, 1.0, 1.3], ""optical"": {""transparent"": 1, ""refraction"": 1.5, ""birefringence"": 0.01}}"
Magnesio-fluoro-arfvedsonite,NaNa2(Mg4Fe3+)Si8O22F2,"{""Na"": 3.0, ""Mg"": 4.0, ""Fe"": 1.0, ""Si"": 8.0, ""O"": 22.0, ""F"": 2.0}",836.78,#556B2F,monoclinic,"{""system"": ""monoclinic"", ""scale"": [0.7, 1.0, 1.3], ""optical"": {""transparent"": 0, ""refraction"": 0.0, ""birefringence"": 0.0}}"
Magnesio-fluoro-hastingsite,NaCa2(Mg4Fe3+)(Si6Al2)O22F2,"{""Na"": 1.0, ""Ca"": 2.0, ""Mg"": 4.0, ""Fe"": 1.0, ""Si"": 6.0, ""Al"": 2.0, ""O"": 22.0, ""F"": 2.0}",868.74,#556B2F,monoclinic,"{""system"": ""monoclinic"", ""scale"": [0.7, 1.0, 1.3], ""optical"": {""transparent"": 0, ""refraction"": 0.0, ""birefringence"": 0.0}}"
Magnesio-hastingsite,NaCa2(Mg4Fe3+)(Si6Al2)O22(OH)2,"{""Na"": 1.0, ""Ca"": 2.0, ""Mg"": 4.0, ""Fe"": 1.0, ""Si"": 6.0, ""Al"": 2.0, ""O"": 24.0, ""H"": 2.0}",864.76,#556B2F,monoclinic,"{""system"": ""monoclinic"", ""scale"": [0.7, 1.0, 1.3], ""optical"": {""transparent"": 0, ""refraction"": 0.0, ""birefringence"": 0.0}}"
Magnesiohatertite,NaNaCa(MgFe3+)(AsO4)3,"{""Na"": 2.0, ""Ca"": 1.0, ""Mg"": 1.0, ""Fe"": 1.0, ""As"": 3.0, ""O"": 12.0}",582.98,#556B2F,monoclinic,"{""system"": ""monoclinic"", ""scale"": [0.7, 1.0, 1.3], ""optical"": {""transparent"": 0, ""refraction"": 0.0, ""birefringence"": 0.0}}"
Magnesiohogbomite-6N12S,Mg5Al11TiO23(OH),"{""Mg"": 5.0, ""Al"": 11.0, ""Ti"": 1.0, ""O"": 24.0, ""H"": 1.0}",851.21,#FFFFFF,hexagonal,"{""system"": ""hexagonal"", ""scale"": [1.0, 1.0, 1.6], ""optical"": {""transparent"": 1, ""refraction"": 1.5, ""birefringence"": 0.01}}"
Magnesiohulsite,Mg2Fe3+O2(BO3),"{""Mg"": 2.0, ""Fe"": 1.0, ""O"": 5.0, ""B"": 1.0}",195.28,#556B2F,monoclinic,"{""system"": ""monoclinic"", ""scale"": [0.7, 1.0, 1.3], ""optical"": {""transparent"": 0, ""refraction"": 0.0, ""birefringence"": 0.0}}"
Magnesiokoritnigite,Mg(AsO3OH)·H2O,"{""Mg"": 1.0, ""As"": 1.0, ""O"": 5.0, ""H"": 3.0}",182.25,#FFFFFF,triclinic,"{""system"": ""triclinic"", ""scale"": [0.7, 1.0, 1.3], ""optical"": {""transparent"": 1, ""refraction"": 1.5, ""birefringence"": 0.01}}"
Magnesioleydetite,Mg(UO2)(SO4)2·11H2O,"{""Mg"": 1.0, ""U"": 1.0, ""O"": 21.0, ""S"": 2.0, ""H"": 22.0}",684.64,#FFFFFF,monoclinic,"{""system"": ""monoclinic"", ""scale"": [0.7, 1.0, 1.3], ""optical"": {""transparent"": 1, ""refraction"": 1.5, ""birefringence"": 0.01}}"
Magnesio-lucchesiite,CaMg3Al6(Si6O18)(BO3)3(OH)3O,"{""Ca"": 1.0, ""Mg"": 3.0, ""Al"": 6.0, ""Si"": 6.0, ""O"": 31.0, ""B"": 3.0, ""H"": 3.0}",974.88,#FFFFFF,hexagonal,"{""system"": ""hexagonal"", ""scale"": [1.0, 1.0, 1.6], ""optical"": {""transparent"": 1, ""refraction"": 1.5, ""birefringence"": 0.01}}"
Magnesiopascoite,Ca2MgV5+10O28·16H2O,"{""Ca"": 2.0, ""Mg"": 1.0, ""V"": 10.0, ""O"": 44.0, ""H"": 32.0}",1350.13,#FFFFFF,monoclinic,"{""system"": ""monoclinic"", ""scale"": [0.7, 1.0, 1.3], ""optical"": {""transparent"": 1, ""refraction"": 1.5, ""birefringence"": 0.01}}"
Magnesioqingheiite,Na2Mg(MgAl)(PO4)3,"{""Na"": 2.0, ""Mg"": 2.0, ""Al"": 1.0, ""P"": 3.0, ""O"": 12.0}",406.49,#FFFFFF,monoclinic,"{""system"": ""monoclinic"", ""scale"": [0.7, 1.0, 1.3], ""optical"": {""transparent"": 1, ""refraction"": 1.5, ""birefringence"": 0.01}}"
Magnesiotaaffeite-2N2S,Mg3BeAl8O16,"{""Mg"": 3.0, ""Be"": 1.0, ""Al"": 8.0, ""O"": 16.0}",553.78,#FFFFFF,hexagonal,"{""system"": ""hexagonal"", ""scale"": [1.0, 1.0, 1.6], ""optical"": {""transparent"": 1, ""refraction"": 1.5, ""birefringence"": 0.01}}"
Magnesiotaaffeite-6N3S,Mg2BeAl6O12,"{""Mg"": 2.0, ""Be"": 1.0, ""Al"": 6.0, ""O"": 12.0}",411.51,#FFFFFF,hexagonal,"{""system"": ""hexagonal"", ""scale"": [1.0, 1.0, 1.6], ""optical"": {""transparent"": 1, ""refraction"": 1.5, ""birefringence"": 0.01}}"