name,formula,elements,density,color,crystal,pm_ids,gacha_weight
Kozoite-(La),La(CO3)(OH),"{""La"": 1.0, ""C"": 1.0, ""O"": 4.0, ""H"": 1.0}",215.925,#FFFFFF,orthorhombic,"{8,23}",8.210407e-06
Kozoite-(Nd),Nd(CO3)(OH),"{""Nd"": 1.0, ""C"": 1.0, ""O"": 4.0, ""H"": 1.0}",221.255,#FFFFFF,orthorhombic,"{8,23}",8.210407e-06
Kozyrevskite,Cu4O(AsO4)2,"{""Cu"": 4.0, ""O"": 9.0, ""As"": 2.0}",548.019,#00BFFF,orthorhombic,{45},2.3585e-08
Kralikite,BaCl2·2H2O,"{""Ba"": 1.0, ""Cl"": 2.0, ""H"": 4.0, ""O"": 2.0}",244.26,#FFFFFF,monoclinic,{},1e-06
Krasheninnikovite,KNa2CaMg(SO4)3F,"{""K"": 1.0, ""Na"": 2.0, ""Ca"": 1.0, ""Mg"": 1.0, ""S"": 3.0, ""O"": 12.0, ""F"": 1.0}",456.627,#FFFFFF,hexagonal,{45},4.72e-10
Krasnoshteinite,Al8[B2O4(OH)2](OH)16Cl4·7H2O,"{""Al"": 8.0, ""B"": 2.0, ""O"": 29.0, ""H"": 32.0, ""Cl"": 4.0}",875.503,#FFFFFF,monoclinic,"{23,25}",1.806413e-06
Kratochvilite,C13H10,"{""C"": 13.0, ""H"": 10.0}",166.223,#FFFFFF,orthorhombic,"{50,54}",7.9365e-08
Krausite,KFe3+(SO4)2·H2O,"{""K"": 1.0, ""Fe"": 1.0, ""S"": 2.0, ""O"": 9.0, ""H"": 2.0}",305.07,#556B2F,monoclinic,"{45,47,55}",4.232e-09
Krauskopfite,BaSi2O5·3H2O,"{""Ba"": 1.0, ""Si"": 2.0, ""O"": 8.0, ""H"": 6.0}",327.54,#FFFFFF,monoclinic,"{32,40}",9.428661e-06
Krautite,Mn(AsO3OH)·H2O,"{""Mn"": 1.0, ""As"": 1.0, ""O"": 5.0, ""H"": 3.0}",212.879,#FFFFFF,monoclinic,"{47,55,57}",1.9606e-08
Kravtsovite,PdAg2S,"{""Pd"": 1.0, ""Ag"": 2.0, ""S"": 1.0}",354.22,#A9A9A9,orthorhombic,{33},2.51e-10
Kreiterite,CsLi2Fe3+Si4O10F2,"{""Cs"": 1.0, ""Li"": 2.0, ""Fe"": 1.0, ""Si"": 4.0, ""O"": 10.0, ""F"": 2.0}",512.961,#556B2F,monoclinic,{34},8.87e-10
Kremersite,(NH4)2Fe3+Cl5·H2O,"{""N"": 2.0, ""H"": 10.0, ""Fe"": 1.0, ""Cl"": 5.0, ""O"": 1.0}",287.188,#556B2F,orthorhombic,"{45,50,54}",1.0295e-07
Krennerite,Au3AgTe8,"{""Au"": 3.0, ""Ag"": 1.0, ""Te"": 8.0}",1719.58,#FFD700,orthorhombic,{33},1.2547e-08
Krettnichite,PbMn3+2(VO4)2(OH)2,"{""Pb"": 1.0, ""Mn"": 2.0, ""V"": 2.0, ""O"": 10.0, ""H"": 2.0}",580.966,#FFFFFF,monoclinic,{47},7.508e-09
Kribergite,Al5(PO4)3(SO4)(OH)4·4H2O,"{""Al"": 5.0, ""P"": 3.0, ""O"": 24.0, ""S"": 1.0, ""H"": 12.0}",655.964,#FFFFFF,unknown,{47},3.003e-09
Krieselite,Al2(GeO4)F2,"{""Al"": 2.0, ""Ge"": 1.0, ""O"": 4.0, ""F"": 2.0}",228.586,#FFFFFF,orthorhombic,{33},6.27e-10
Krinovite,Na4[Mg8Cr3+4]O4[Si12O36],"{""Na"": 4.0, ""Mg"": 8.0, ""Cr"": 4.0, ""O"": 40.0, ""Si"": 12.0}",1471.364,#FFFFFF,triclinic,{5},1.06383e-07
Kristiansenite,Ca4Sc2Sn2(Si2O7)2(Si2O6OH)2,"{""Ca"": 4.0, ""Sc"": 2.0, ""Sn"": 2.0, ""Si"": 8.0, ""O"": 28.0, ""H"": 2.0}",1162.312,#FFFFFF,triclinic,{34},1.773e-08
Kristjanite,KNa2H(SO4)2,"{""K"": 1.0, ""Na"": 2.0, ""H"": 1.0, ""S"": 2.0, ""O"": 8.0}",278.198,#FFFFFF,monoclinic,{},2e-08
Krivovichevite,Pb3Al(OH)6(SO4)(OH),"{""Pb"": 3.0, ""Al"": 1.0, ""O"": 11.0, ""H"": 7.0, ""S"": 1.0}",863.687,#FFFFFF,hexagonal,"{35,47}",3.278e-09
Krohnkite,Na2Cu(SO4)2·2H2O,"{""Na"": 2.0, ""Cu"": 1.0, ""S"": 2.0, ""O"": 10.0, ""H"": 4.0}",337.668,#FFFFFF,monoclinic,"{45,47}",3.475e-09
Krotite,CaAl2O4,"{""Ca"": 1.0, ""Al"": 2.0, ""O"": 4.0}",158.038,#FFFFFF,monoclinic,"{3,7}",3.76524e-07
Kruijenite,Ca4Al4(SO4)F2(OH)16·2H2O,"{""Ca"": 4.0, ""Al"": 4.0, ""S"": 1.0, ""O"": 22.0, ""F"": 2.0, ""H"": 20.0}",710.434,#FFFFFF,tetragonal,{47},3.003e-09
Krupickaite,Cu6[AsO3(OH)]6·8H2O,"{""Cu"": 6.0, ""As"": 6.0, ""O"": 32.0, ""H"": 22.0}",1364.952,#FFFFFF,monoclinic,{47},1.5015e-07
Krupkaite,PbCuBi3S6,"{""Pb"": 1.0, ""Cu"": 1.0, ""Bi"": 3.0, ""S"": 6.0}",1090.046,#708090,orthorhombic,{33},2.51e-10
Krutaite,CuSe2,"{""Cu"": 1.0, ""Se"": 2.0}",221.488,#00BFFF,cubic,{33},1.2547e-08
Krutovite,NiAs2,"{""Ni"": 1.0, ""As"": 2.0}",208.537,#7FFF00,cubic,{33},1.2547e-08
Ktenasite,ZnCu4(SO4)2(OH)6·6H2O,"{""Zn"": 1.0, ""Cu"": 4.0, ""S"": 2.0, ""O"": 20.0, ""H"": 18.0}",721.808,#FFFFFF,monoclinic,"{47,55,56}",5.159e-09
Kudryavtsevaite,Na3MgFe3+Ti4O12,"{""Na"": 3.0, ""Mg"": 1.0, ""Fe"": 1.0, ""Ti"": 4.0, ""O"": 12.0}",532.576,#556B2F,orthorhombic,{36},1.0309e-08
Kufahrite,PtPb,"{""Pt"": 1.0, ""Pb"": 1.0}",402.28,#FFFFFF,hexagonal,{7},8.1301e-08
Kukharenkoite-(Ce),Ba2Ce(CO3)3F,"{""Ba"": 2.0, ""Ce"": 1.0, ""C"": 3.0, ""O"": 9.0, ""F"": 1.0}",613.802,#FFFFFF,monoclinic,"{35,36}",2.407e-09
Kukharenkoite-(La),Ba2La(CO3)3F,"{""Ba"": 2.0, ""La"": 1.0, ""C"": 3.0, ""O"": 9.0, ""F"": 1.0}",612.592,#FFFFFF,monoclinic,{35},6.89e-10
Kukisvumite,Na6ZnTi4O4(SiO3)8·4H2O,"{""Na"": 6.0, ""Zn"": 1.0, ""Ti"": 4.0, ""O"": 32.0, ""Si"": 8.0, ""H"": 8.0}",1139.5,#FFFFFF,orthorhombic,{35},4.132e-09
Kuksite,Pb3Zn3TeO6(PO4)2,"{""Pb"": 3.0, ""Zn"": 3.0, ""Te"": 1.0, ""O"": 14.0, ""P"": 2.0}",1231.274,#FFFFFF,hexagonal,{47},1.5015e-08
Kulanite,BaFe2+2Al2(PO4)3(OH)3,"{""Ba"": 1.0, ""Fe"": 2.0, ""Al"": 2.0, ""P"": 3.0, ""O"": 15.0, ""H"": 3.0}",638.915,#556B2F,monoclinic,"{22,34,47}",2.0837e-08
Kuliginite,Fe3Mg(OH)6Cl2,"{""Fe"": 3.0, ""Mg"": 1.0, ""O"": 6.0, ""H"": 6.0, ""Cl"": 2.0}",364.782,#556B2F,hexagonal,"{7,16}",2.01783e-07
Kuliokite-(Y),Y4Al(SiO4)2(OH)2F5,"{""Y"": 4.0, ""Al"": 1.0, ""Si"": 2.0, ""O"": 10.0, ""H"": 2.0, ""F"": 5.0}",695.772,#FFFFFF,triclinic,{35},6.89e-10
Kullerudite,NiSe2,"{""Ni"": 1.0, ""Se"": 2.0}",216.635,#7FFF00,orthorhombic,{47},1.5015e-07
Kumdykolite,Na(AlSi3O8),"{""Na"": 1.0, ""Al"": 1.0, ""Si"": 3.0, ""O"": 8.0}",262.219,#FFFFFF,orthorhombic,"{4,39}",8.89058e-07
Kummerite,Mn2+Fe3+Al(PO4)2(OH)2·8H2O,"{""Mn"": 1.0, ""Fe"": 1.0, ""Al"": 1.0, ""P"": 2.0, ""O"": 18.0, ""H"": 18.0}",505.839,#556B2F,triclinic,{47},7.508e-09
Kumtyubeite,Ca5(SiO4)2F2,"{""Ca"": 5.0, ""Si"": 2.0, ""O"": 8.0, ""F"": 2.0}",422.548,#FFFFFF,monoclinic,"{9,45,51,54}",1.1159e-08
Kunatite,CuFe3+2(PO4)2(OH)2·4H2O,"{""Cu"": 1.0, ""Fe"": 2.0, ""P"": 2.0, ""O"": 14.0, ""H"": 10.0}",471.25,#556B2F,monoclinic,"{31,34}",4.582e-09
Kupletskite,K2NaMn2+7Ti2(Si4O12)2O2(OH)4F,"{""K"": 2.0, ""Na"": 1.0, ""Mn"": 7.0, ""Ti"": 2.0, ""Si"": 8.0, ""O"": 30.0, ""H"": 4.0, ""F"": 1.0}",1309.166,#FFFFFF,monoclinic,{35},6.89e-10
Kupletskite-(Cs),Cs2NaMn2+7Ti2(Si4O12)2O2(OH)4F,"{""Cs"": 2.0, ""Na"": 1.0, ""Mn"": 7.0, ""Ti"": 2.0, ""Si"": 8.0, ""O"": 30.0, ""H"": 4.0, ""F"": 1.0}",1496.79,#FFFFFF,triclinic,{35},6.89e-10
Kuramite,Cu3SnS4,"{""Cu"": 3.0, ""Sn"": 1.0, ""S"": 4.0}",437.588,#A9A9A9,tetragonal,{12},1.55e-09
Kuranakhite,PbMn4+Te6+O6,"{""Pb"": 1.0, ""Mn"": 1.0, ""Te"": 1.0, ""O"": 6.0}",485.732,#FFFFFF,orthorhombic,{47},7.508e-09
Kuratite,Ca2(Fe2+5Ti)O2[Si4Al2O18],"{""Ca"": 2.0, ""Fe"": 5.0, ""Ti"": 1.0, ""O"": 20.0, ""Si"": 4.0, ""Al"": 2.0}",893.532,#556B2F,triclinic,{5},3.1915e-08
Kurchatovite,CaMgB2O5,"{""Ca"": 1.0, ""Mg"": 1.0, ""B"": 2.0, ""O"": 5.0}",165.998,#FFFFFF,orthorhombic,{23},1.758794e-06
Kurgantaite,CaSrB5O9Cl·H2O,"{""Ca"": 1.0, ""Sr"": 1.0, ""B"": 5.0, ""O"": 10.0, ""Cl"": 1.0, ""H"": 2.0}",379.204,#FFFFFF,triclinic,{25},4.7619e-08
Kurilite,Ag8Te3Se,"{""Ag"": 8.0, ""Te"": 3.0, ""Se"": 1.0}",1324.731,#C0C0C0,hexagonal,{33},1.2547e-08
Kurnakovite,MgB3O3(OH)5·5H2O,"{""Mg"": 1.0, ""B"": 3.0, ""O"": 13.0, ""H"": 15.0}",279.842,#FFFFFF,triclinic,{25},4.7619e-08
Kurumsakite,Zn8Al8V5+2Si5O35·27H2O (?),"{""Zn"": 8.0, ""Al"": 8.0, ""V"": 2.0, ""Si"": 5.0, ""O"": 62.0, ""H"": 54.0}",2027.575,#FFFFFF,unknown,{47},1.5015e-07
Kusachiite,Cu2+Bi3+2O4,"{""Cu"": 1.0, ""Bi"": 2.0, ""O"": 4.0}",545.502,#00BFFF,tetragonal,{33},1.2547e-08
Kushiroite,CaAlAlSiO6,"{""Ca"": 1.0, ""Al"": 2.0, ""Si"": 1.0, ""O"": 6.0}",218.121,#FFFFFF,monoclinic,"{47,56}",2.86104e-07
Kutinaite,Ag6Cu14As7,"{""Ag"": 6.0, ""Cu"": 14.0, ""As"": 7.0}",2061.318,#00BFFF,cubic,{33},1.2547e-08
Kutnohorite,CaMn2+(CO3)2,"{""Ca"": 1.0, ""Mn"": 1.0, ""C"": 2.0, ""O"": 6.0}",215.032,#FFFFFF,hexagonal,{32},1.214e-09
Kuvaevite,Ir5Ni10S16,"{""Ir"": 5.0, ""Ni"": 10.0, ""S"": 16.0}",2060.99,#A9A9A9,hexagonal,{7},1.626e-09
Kuzelite,Ca4Al2(OH)12(SO4)·6H2O,"{""Ca"": 4.0, ""Al"": 2.0, ""O"": 22.0, ""H"": 24.0, ""S"": 1.0}",622.506,#FFFFFF,hexagonal,"{9,25}",2.527e-09
Kuzmenkoite-Mn,K2MnTi4(Si4O12)2(OH)4·5-6H2O,"{""K"": 2.0, ""Mn"": 1.0, ""Ti"": 4.0, ""Si"": 8.0, ""O"": 34.0, ""H"": 16.0}",1109.376,#FFFFFF,monoclinic,{35},6.89e-10
Kuzmenkoite-Zn,K2ZnTi4(Si4O12)2(OH)4·6-8H2O,"{""K"": 2.0, ""Zn"": 1.0, ""Ti"": 4.0, ""Si"": 8.0, ""O"": 36.0, ""H"": 20.0}",1155.848,#FFFFFF,monoclinic,{35},4.132e-09
Kuzminite,HgBr,"{""Hg"": 1.0, ""Br"": 1.0}",280.494,#FFFFFF,tetragonal,{47},1.5015e-07
Kuznetsovite,Hg1+2Hg2+(AsO4)Cl,"{""Hg"": 3.0, ""As"": 1.0, ""O"": 4.0, ""Cl"": 1.0}",776.138,#FFFFFF,cubic,{47},1.5015e-07
Kvacekite,NiSbSe,"{""Ni"": 1.0, ""Sb"": 1.0, ""Se"": 1.0}",259.424,#7FFF00,cubic,{},1e-06
Kvanefjeldite,Na4CaSi6O14(OH)2,"{""Na"": 4.0, ""Ca"": 1.0, ""Si"": 6.0, ""O"": 16.0, ""H"": 2.0}",558.548,#FFFFFF,orthorhombic,{22},5.2632e-08
Kyanite,Al2OSiO4,"{""Al"": 2.0, ""O"": 5.0, ""Si"": 1.0}",162.044,#FFFFFF,triclinic,"{26,36,39,40}",5.9653983e-05
Kyawthuite,Bi3+Sb5+O4,"{""Bi"": 1.0, ""Sb"": 1.0, ""O"": 4.0}",394.736,#A9A9A9,monoclinic,"{26,34}",5.773e-08
Kyrgyzstanite,ZnAl4(SO4)(OH)12·3H2O,"{""Zn"": 1.0, ""Al"": 4.0, ""S"": 1.0, ""O"": 19.0, ""H"": 18.0}",527.493,#FFFFFF,monoclinic,{47},3.003e-09
Kyzylkumite,Ti2V3+O5(OH),"{""Ti"": 2.0, ""V"": 1.0, ""O"": 6.0, ""H"": 1.0}",243.678,#FFFFFF,monoclinic,{33},3.764e-09
Labuntsovite-Fe,Na4K4Fe2+2Ti8O4(Si4O12)4(OH)4·10-12H2O,"{""Na"": 4.0, ""K"": 4.0, ""Fe"": 2.0, ""Ti"": 8.0, ""O"": 68.0, ""Si"": 16.0, ""H"": 28.0}",2308.494,#556B2F,monoclinic,{35},4.132e-09
Labuntsovite-Mg,Na4K4Mg2Ti8O4(Si4O12)4(OH)4·10-12H2O,"{""Na"": 4.0, ""K"": 4.0, ""Mg"": 2.0, ""Ti"": 8.0, ""O"": 68.0, ""Si"": 16.0, ""H"": 28.0}",2245.414,#FFFFFF,monoclinic,{35},4.132e-09
Labuntsovite-Mn,Na4K4Mn2+2Ti8O4(Si4O12)4(OH)4·10-12H2O,"{""Na"": 4.0, ""K"": 4.0, ""Mn"": 2.0, ""Ti"": 8.0, ""O"": 68.0, ""Si"": 16.0, ""H"": 28.0}",2306.68,#FFFFFF,monoclinic,{35},6.89e-10
Lacroixite,NaAl(PO4)F,"{""Na"": 1.0, ""Al"": 1.0, ""P"": 1.0, ""O"": 4.0, ""F"": 1.0}",163.94,#FFFFFF,monoclinic,"{34,36}",2.605e-09
Laffittite,AgHgAsS3,"{""Ag"": 1.0, ""Hg"": 1.0, ""As"": 1.0, ""S"": 3.0}",479.562,#FFD700,monoclinic,{33},2.51e-10
Laflammeite,Pd3Pb2S2,"{""Pd"": 3.0, ""Pb"": 2.0, ""S"": 2.0}",797.78,#708090,monoclinic,"{12,33,37}",3.283e-09
Laforetite,AgInS2,"{""Ag"": 1.0, ""In"": 1.0, ""S"": 2.0}",286.81,#A9A9A9,tetragonal,{33},2.51e-10
Lafossaite,TlCl,"{""Tl"": 1.0, ""Cl"": 1.0}",239.83,#FFFFFF,cubic,{45},2.3585e-08
Lahnsteinite,Zn4(SO4)(OH)6·3H2O,"{""Zn"": 4.0, ""S"": 1.0, ""O"": 13.0, ""H"": 12.0}",513.663,#FFFFFF,triclinic,{47},3.003e-09
Lakargiite,CaZrO3,"{""Ca"": 1.0, ""Zr"": 1.0, ""O"": 3.0}",179.299,#FFFFFF,orthorhombic,"{3,9,50,51,54}",4.44564e-07
Lakebogaite,NaCaFe2H(UO2)2(PO4)4(OH)2·8H2O,"{""Na"": 1.0, ""Ca"": 1.0, ""Fe"": 2.0, ""H"": 19.0, ""U"": 2.0, ""O"": 30.0, ""P"": 4.0}",1273.836,#556B2F,monoclinic,{47},1.5015e-08
Lammerite,Cu3(AsO4)2,"{""Cu"": 3.0, ""As"": 2.0, ""O"": 8.0}",468.474,#00BFFF,monoclinic,"{45,47,56}",2.43665e-07
Lamprophyllite,(SrNa)Ti2Na3Ti(Si2O7)2O2(OH)2,"{""Sr"": 1.0, ""Na"": 4.0, ""Ti"": 3.0, ""Si"": 4.0, ""O"": 18.0, ""H"": 2.0}",725.519,#FFFFFF,orthorhombic,{35},4.132e-09
Lanarkite,Pb2O(SO4),"{""Pb"": 2.0, ""O"": 5.0, ""S"": 1.0}",526.455,#FFFF00,monoclinic,{47},3.003e-09
Landesite,Mn2+9Fe3+3(PO4)8(OH)3·9H2O,"{""Mn"": 9.0, ""Fe"": 3.0, ""P"": 8.0, ""O"": 44.0, ""H"": 21.0}",1634.893,#556B2F,orthorhombic,"{34,47}",8.394e-09
Langbanite,Mn2+4Mn3+9Sb5+O16(SiO4)2,"{""Mn"": 13.0, ""Sb"": 1.0, ""O"": 24.0, ""Si"": 2.0}",1276.1,#FFFFFF,monoclinic,{32},1.214e-09
Langbanshyttanite,Pb2Mn2Mg(AsO4)2(OH)4·6H2O,"{""Pb"": 2.0, ""Mn"": 2.0, ""Mg"": 1.0, ""As"": 2.0, ""O"": 18.0, ""H"": 16.0}",1002.535,#FFFFFF,triclinic,{47},7.508e-09
Langbeinite,K2Mg2(SO4)3,"{""K"": 2.0, ""Mg"": 2.0, ""S"": 3.0, ""O"": 12.0}",414.974,#FFFFFF,cubic,"{25,45,50,54}",3.011e-09
Langhofite,Pb2(OH)[WO4(OH)],"{""Pb"": 2.0, ""O"": 6.0, ""H"": 2.0, ""W"": 1.0}",696.25,#FFFFFF,triclinic,{47},1.5015e-07
Langisite,CoAs,"{""Co"": 1.0, ""As"": 1.0}",133.855,#4169E1,orthorhombic,{33},1.2547e-08
Langite,Cu4(SO4)(OH)6·2H2O,"{""Cu"": 4.0, ""S"": 1.0, ""O"": 12.0, ""H"": 10.0}",488.312,#FFFFFF,monoclinic,"{47,55,56}",5.159e-09
Lanmuchangite,TlAl(SO4)2·12H2O,"{""Tl"": 1.0, ""Al"": 1.0, ""S"": 2.0, ""O"": 20.0, ""H"": 24.0}",639.654,#FFFFFF,cubic,{47},3.003e-09
Lannonite,HCa4Mg2Al4(SO4)8F9·32H2O,"{""H"": 65.0, ""Ca"": 4.0, ""Mg"": 2.0, ""Al"": 4.0, ""S"": 8.0, ""O"": 64.0, ""F"": 9.0}",1833.768,#FFFFFF,tetragonal,"{47,55}",3.761e-09
Lansfordite,Mg(CO3)·5H2O,"{""Mg"": 1.0, ""C"": 1.0, ""O"": 8.0, ""H"": 10.0}",174.388,#FFFFFF,monoclinic,"{47,49,50,53,55}",4.39999e-07
Lanthanite-(Ce),Ce2(CO3)3·8H2O,"{""Ce"": 2.0, ""C"": 3.0, ""O"": 17.0, ""H"": 16.0}",604.384,#FFFFFF,orthorhombic,{47},1.5015e-07
Lanthanite-(La),La2(CO3)3·8H2O,"{""La"": 2.0, ""C"": 3.0, ""O"": 17.0, ""H"": 16.0}",601.964,#FFFFFF,orthorhombic,{47},1.5015e-07
Lanthanite-(Nd),Nd2(CO3)3·8H2O,"{""Nd"": 2.0, ""C"": 3.0, ""O"": 17.0, ""H"": 16.0}",612.624,#FFFFFF,orthorhombic,{47},1.5015e-07
Lapeyreite,Cu3O[AsO3(OH)]2·H2O,"{""Cu"": 3.0, ""O"": 10.0, ""As"": 2.0, ""H"": 4.0}",504.504,#FFFFFF,monoclinic,{47},1.5015e-07
Laphamite,As2Se3,"{""As"": 2.0, ""Se"": 3.0}",386.757,#808080,monoclinic,"{50,54}",7.9365e-08
Lapieite,CuNiSbS3,"{""Cu"": 1.0, ""Ni"": 1.0, ""Sb"": 1.0, ""S"": 3.0}",340.179,#A9A9A9,orthorhombic,{33},2.51e-10
Laplandite-(Ce),Na4CeTiPSi7O22·5H2O,"{""Na"": 4.0, ""Ce"": 1.0, ""Ti"": 1.0, ""P"": 1.0, ""Si"": 7.0, ""O"": 27.0, ""H"": 10.0}",949.569,#FFFFFF,orthorhombic,{35},1.377e-09
Laptevite-(Ce),NaFe2+(REE7Ca5Y3)(SiO4)4(Si3B2PO18)(BO3)F11,"{""Na"": 1.0, ""Fe"": 1.0, ""Ca"": 5.0, ""Y"": 3.0, ""Si"": 7.0, ""O"": 37.0, ""B"": 3.0, ""P"": 1.0, ""F"": 11.0}",1606.883,#556B2F,hexagonal,{35},6.89e-10
Larderellite,(NH4)B5O7(OH)2·H2O,"{""N"": 1.0, ""H"": 8.0, ""B"": 5.0, ""O"": 10.0}",236.111,#FFFFFF,monoclinic,"{45,55,57}",2.65545e-07
Larisaite,Na(H3O)(UO2)3(Se4+O3)2O2·4H2O,"{""Na"": 1.0, ""H"": 11.0, ""O"": 19.0, ""U"": 3.0, ""Se"": 2.0}",1210.091,#FFFFFF,monoclinic,{47},1.5015e-07
Larnite,Ca2(SiO4),"{""Ca"": 2.0, ""Si"": 1.0, ""O"": 4.0}",172.237,#FFFFFF,monoclinic,"{31,40,50,51,54}",1.2466959e-05
Larsenite,ZnPb(SiO4),"{""Zn"": 1.0, ""Pb"": 1.0, ""Si"": 1.0, ""O"": 4.0}",364.661,#FFFFFF,orthorhombic,{32},2.4272e-08
Lasalite,Na2Mg2V10O28·20H2O,"{""Na"": 2.0, ""Mg"": 2.0, ""V"": 10.0, ""O"": 48.0, ""H"": 40.0}",1412.282,#FFFFFF,monoclinic,"{47,55}",1.88029e-07
Lasmanisite,Ag12Pb13Mn11Sb44S96,"{""Ag"": 12.0, ""Pb"": 13.0, ""Mn"": 11.0, ""Sb"": 44.0, ""S"": 96.0}",13027.558,#708090,orthorhombic,{},2e-08
Latrappite,Ca2NbFe3+O6,"{""Ca"": 2.0, ""Nb"": 1.0, ""Fe"": 1.0, ""O"": 6.0}",324.901,#556B2F,orthorhombic,"{35,36}",4.8138e-08
Laueite,Mn2+Fe3+2(PO4)2(OH)2·8H2O,"{""Mn"": 1.0, ""Fe"": 2.0, ""P"": 2.0, ""O"": 18.0, ""H"": 18.0}",534.702,#556B2F,triclinic,"{22,47}",9.532e-09
Laumontite,CaAl2Si4O12·4H2O,"{""Ca"": 1.0, ""Al"": 2.0, ""Si"": 4.0, ""O"": 16.0, ""H"": 8.0}",470.43,#FFFFFF,monoclinic,"{10,14,16,22,40}",1.2769573e-05
Lauraniite,Cu6Cd2(SO4)2(OH)12·5H2O,"{""Cu"": 6.0, ""Cd"": 2.0, ""S"": 2.0, ""O"": 25.0, ""H"": 22.0}",1092.367,#FFFFFF,monoclinic,{47},3.003e-09
Laurelite,Pb7F12Cl2,"{""Pb"": 7.0, ""F"": 12.0, ""Cl"": 2.0}",1749.276,#FFFFFF,hexagonal,{47},7.508e-09
Laurentianite,[NbO(H2O)]3(Si2O7)2[Na(H2O)2]3,"{""Nb"": 3.0, ""O"": 26.0, ""H"": 18.0, ""Si"": 4.0, ""Na"": 3.0}",894.146,#FFFFFF,hexagonal,"{47,55}",1.88029e-07
Laurentthomasite,Mg2K(Be2Al)Si12O30,"{""Mg"": 2.0, ""K"": 1.0, ""Be"": 2.0, ""Al"": 1.0, ""Si"": 12.0, ""O"": 30.0}",949.7044,#FFFFFF,hexagonal,{34},1.773e-08
Laurionite,PbCl(OH),"{""Pb"": 1.0, ""Cl"": 1.0, ""O"": 1.0, ""H"": 1.0}",259.657,#FFFFFF,orthorhombic,"{47,56}",2.2008e-07
Laurite,RuS2,"{""Ru"": 1.0, ""S"": 2.0}",165.19,#A9A9A9,cubic,"{7,36,37,38}",5.647e-09
Lausenite,Fe3+2(SO4)3·5H2O,"{""Fe"": 2.0, ""S"": 3.0, ""O"": 17.0, ""H"": 10.0}",489.933,#556B2F,monoclinic,"{47,50,54}",4.59e-09
Lautarite,Ca(IO3)2,"{""Ca"": 1.0, ""I"": 2.0, ""O"": 6.0}",389.872,#FFFFFF,monoclinic,{25},4.7619e-08
Lautenthalite,PbCu4(SO4)2(OH)6·3H2O,"{""Pb"": 1.0, ""Cu"": 4.0, ""S"": 2.0, ""O"": 17.0, ""H"": 12.0}",809.583,#FFFFFF,monoclinic,"{47,55,56}",5.159e-09
Lautite,CuAsS,"{""Cu"": 1.0, ""As"": 1.0, ""S"": 1.0}",170.528,#FFD700,orthorhombic,{33},2.51e-10
Lavendulan,NaCaCu5(AsO4)4Cl·5H2O,"{""Na"": 1.0, ""Ca"": 1.0, ""Cu"": 5.0, ""As"": 4.0, ""O"": 21.0, ""Cl"": 1.0, ""H"": 10.0}",1061.995,#FFFFFF,monoclinic,"{47,55,56}",2.57959e-07
Laverovite,K2NaMn7Zr2(Si4O12)2O2(OH)4F,"{""K"": 2.0, ""Na"": 1.0, ""Mn"": 7.0, ""Zr"": 2.0, ""Si"": 8.0, ""O"": 30.0, ""H"": 4.0, ""F"": 1.0}",1395.88,#FFFFFF,triclinic,{35},6.89e-10
Lavinskyite,K(LiCu)Cu6(Si4O11)2(OH)4,"{""K"": 1.0, ""Li"": 1.0, ""Cu"": 7.0, ""Si"": 8.0, ""O"": 26.0, ""H"": 4.0}",1135.546,#FFFFFF,orthorhombic,{22},4.0486e-08
Lavoisierite,Mn2+8[Al10(Mn3+Mg)][Si11P]O44(OH)12,"{""Mn"": 9.0, ""Al"": 10.0, ""Mg"": 1.0, ""Si"": 11.0, ""P"": 1.0, ""O"": 56.0, ""H"": 12.0}",2036.516,#FFFFFF,orthorhombic,{32},1.214e-09
Lavrentievite,Hg3S2Cl2,"{""Hg"": 3.0, ""S"": 2.0, ""Cl"": 2.0}",736.79,#A9A9A9,triclinic,"{23,33}",3.5427e-08
Lawrencite,FeCl2,"{""Fe"": 1.0, ""Cl"": 2.0}",126.745,#8B4513,hexagonal,"{45,47,50,54}",2.531e-07
Lawsonbauerite,Mn2+9Zn4(SO4)2(OH)22·8H2O,"{""Mn"": 9.0, ""Zn"": 4.0, ""S"": 2.0, ""O"": 38.0, ""H"": 38.0}",1466.348,#FFFFFF,monoclinic,{47},3.003e-09
Lawsonite,CaAl2(Si2O7)(OH)2·H2O,"{""Ca"": 1.0, ""Al"": 2.0, ""Si"": 2.0, ""O"": 10.0, ""H"": 4.0}",314.234,#FFFFFF,monoclinic,"{16,39,40,41}",1.3380546e-05
Lazaraskeite,Cu(C2H3O3)2,"{""Cu"": 1.0, ""C"": 4.0, ""H"": 6.0, ""O"": 6.0}",213.632,#FFFFFF,monoclinic,{53},8.547e-08
Lazarenkoite,CaFe3+As3+3O7·3H2O,"{""Ca"": 1.0, ""Fe"": 1.0, ""As"": 3.0, ""O"": 10.0, ""H"": 6.0}",486.727,#556B2F,orthorhombic,{47},1.5015e-07
Lazaridisite,Cd3(SO4)3·8H2O,"{""Cd"": 3.0, ""S"": 3.0, ""O"": 20.0, ""H"": 16.0}",769.518,#FFFFFF,monoclinic,{47},3.003e-09
Lazulite,MgAl2(PO4)2(OH)2,"{""Mg"": 1.0, ""Al"": 2.0, ""P"": 2.0, ""O"": 10.0, ""H"": 2.0}",302.223,#FFFFFF,monoclinic,"{34,40}",9.42212e-07
Lazurite,Na7Ca(Al6Si6O24)(SO4)(S3)1-·H2O,"{""Na"": 7.0, ""Ca"": 1.0, ""Al"": 6.0, ""Si"": 6.0, ""O"": 29.0, ""S"": 4.0, ""H"": 2.0}",1125.637,#FFFFFF,orthorhombic,{31},5.62e-10
Lead,Pb,"{""Pb"": 1.0}",207.2,#FFFFFF,cubic,"{26,29,33,36,38,47,50,53,54}",1.923061e-06
Leadamalgam,HgPb2,"{""Hg"": 1.0, ""Pb"": 2.0}",614.99,#FFFFFF,tetragonal,{33},1.2547e-08
Leadhillite,Pb4(SO4)(CO3)2(OH)2,"{""Pb"": 4.0, ""S"": 1.0, ""O"": 12.0, ""C"": 2.0, ""H"": 2.0}",1078.886,#FFFFFF,monoclinic,{47},3.003e-09
Lebedevite,K4Na14Cu14O8(AsO4)8Cl6,"{""K"": 4.0, ""Na"": 14.0, ""Cu"": 14.0, ""O"": 40.0, ""As"": 8.0, ""Cl"": 6.0}",2819.932,#FFFFFF,tetragonal,{},1e-06
Lechatelierite,SiO2,"{""Si"": 1.0, ""O"": 2.0}",60.083,#FFFFFF,unknown,"{29,30}",4.6410714e-05
Lechnerite,Ag10Cu4HgPb33Sb58S128,"{""Ag"": 10.0, ""Cu"": 4.0, ""Hg"": 1.0, ""Pb"": 33.0, ""Sb"": 58.0, ""S"": 128.0}",19536.834,#708090,triclinic,{},2e-08
Lecontite,(NH4)Na(SO4)·2H2O,"{""N"": 1.0, ""H"": 8.0, ""Na"": 1.0, ""S"": 1.0, ""O"": 6.0}",173.115,#FFFFFF,orthorhombic,"{45,52}",3.249e-09
Lecoqite-(Y),Na3Y(CO3)3·6H2O,"{""Na"": 3.0, ""Y"": 1.0, ""C"": 3.0, ""O"": 15.0, ""H"": 12.0}",445.99,#FFFFFF,hexagonal,"{22,35}",5.426e-08
Lednevite,Cu[PO3(OH)]·H2O,"{""Cu"": 1.0, ""P"": 1.0, ""O"": 5.0, ""H"": 3.0}",177.539,#FFFFFF,monoclinic,{},1e-07
Leesite,K(H2O)2[(UO2)4O2(OH)5]·3H2O,"{""K"": 1.0, ""H"": 15.0, ""O"": 20.0, ""U"": 4.0}",1326.318,#FFFFFF,orthorhombic,{47},1.5015e-07
Lefontite,Fe2Al2Be(PO4)2(OH)6,"{""Fe"": 2.0, ""Al"": 2.0, ""Be"": 1.0, ""P"": 2.0, ""O"": 14.0, ""H"": 6.0}",466.6482,#556B2F,orthorhombic,"{22,34,47}",2.0837e-08
Legrandite,Zn2(AsO4)(OH)·H2O,"{""Zn"": 2.0, ""As"": 1.0, ""O"": 6.0, ""H"": 3.0}",304.7,#FFFFFF,monoclinic,"{47,56}",2.2008e-07
Lehmannite,Na18Cu12TiO8(AsO4)8FCl5,"{""Na"": 18.0, ""Cu"": 12.0, ""Ti"": 1.0, ""O"": 40.0, ""As"": 8.0, ""F"": 1.0, ""Cl"": 5.0}",2659.823,#FFFFFF,monoclinic,{45},1.179e-09
Lehnerite,Mn2+(UO2)2(PO4)2·8H2O,"{""Mn"": 1.0, ""U"": 2.0, ""O"": 20.0, ""P"": 2.0, ""H"": 16.0}",929.054,#FFFFFF,monoclinic,{47},7.508e-09
Leightonite,K2Ca2Cu(SO4)4·2H2O,"{""K"": 2.0, ""Ca"": 2.0, ""Cu"": 1.0, ""S"": 4.0, ""O"": 18.0, ""H"": 4.0}",642.152,#FFFFFF,monoclinic,{47},3.003e-09