name,formula,elements,density,color,crystal
Crimsonite,PbFe3+2(PO4)2(OH)2,"{""Pb"": 1.0, ""Fe"": 2.0, ""P"": 2.0, ""O"": 10.0, ""H"": 2.0}",542.844,#556B2F,orthorhombic
Cristobalite,SiO2,"{""Si"": 1.0, ""O"": 2.0}",60.083,#FFFFFF,orthorhombic
Crocobelonite,CaFe3+2O(PO4)2,"{""Ca"": 1.0, ""Fe"": 2.0, ""O"": 9.0, ""P"": 2.0}",357.707,#556B2F,orthorhombic
Crocoite,Pb(CrO4),"{""Pb"": 1.0, ""Cr"": 1.0, ""O"": 4.0}",323.192,#228B22,monoclinic
Crookesite,Cu7TlSe4,"{""Cu"": 7.0, ""Tl"": 1.0, ""Se"": 4.0}",965.086,#00BFFF,tetragonal
Cryolite,Na2NaAlF6,"{""Na"": 3.0, ""Al"": 1.0, ""F"": 6.0}",209.94,#FFFFFF,monoclinic
Cryolithionite,Na3Al2(LiF4)3,"{""Na"": 3.0, ""Al"": 2.0, ""Li"": 3.0, ""F"": 12.0}",371.73,#FFFFFF,cubic
Cryptochalcite,K2Cu5O(SO4)5,"{""K"": 2.0, ""Cu"": 5.0, ""O"": 21.0, ""S"": 5.0}",892.205,#FFFFFF,triclinic
Cryptohalite,(NH4)2SiF6,"{""N"": 2.0, ""H"": 8.0, ""Si"": 1.0, ""F"": 6.0}",178.151,#FFFFFF,cubic
Cryptophyllite,K2Ca[Si4O10]·5H2O,"{""K"": 2.0, ""Ca"": 1.0, ""Si"": 4.0, ""O"": 15.0, ""H"": 10.0}",480.679,#FFFFFF,monoclinic
Cualstibite,Cu2Al(OH)6[Sb(OH)6],"{""Cu"": 2.0, ""Al"": 1.0, ""O"": 12.0, ""H"": 12.0, ""Sb"": 1.0}",479.918,#FFFFFF,hexagonal
Cubanite,CuFe2S3,"{""Cu"": 1.0, ""Fe"": 2.0, ""S"": 3.0}",271.416,#DAA520,orthorhombic
Cuboargyrite,AgSbS2,"{""Ag"": 1.0, ""Sb"": 1.0, ""S"": 2.0}",293.75,#A9A9A9,cubic
Cubo-ice,H2O,"{""H"": 2.0, ""O"": 1.0}",18.015,#FFFFFF,cubic
Cubothioplumbite,[Pb4(OH)4]Pb(S2O3)3,"{""Pb"": 5.0, ""O"": 13.0, ""H"": 4.0, ""S"": 6.0}",1440.379,#FFFFFF,cubic
Cumengeite,Pb21Cu20Cl42(OH)40·6H2O,"{""Pb"": 21.0, ""Cu"": 20.0, ""Cl"": 42.0, ""O"": 46.0, ""H"": 52.0}",7899.39,#FFFFFF,tetragonal
Cupalite,CuAl,"{""Cu"": 1.0, ""Al"": 1.0}",90.528,#00BFFF,orthorhombic
Cuprite,Cu2O,"{""Cu"": 2.0, ""O"": 1.0}",143.091,#00BFFF,cubic
Cuproauride,Cu3Au,"{""Cu"": 3.0, ""Au"": 1.0}",387.608,#00BFFF,
Cuprobismutite,Cu8AgBi13S24,"{""Cu"": 8.0, ""Ag"": 1.0, ""Bi"": 13.0, ""S"": 24.0}",4102.418,#A9A9A9,monoclinic
Cuprocopiapite,Cu2+Fe3+4(SO4)6(OH)2·20H2O,"{""Cu"": 1.0, ""Fe"": 4.0, ""S"": 6.0, ""O"": 46.0, ""H"": 42.0}",1257.576,#556B2F,
Cuprodobrovolskyite,Na4Cu(SO4)3,"{""Na"": 4.0, ""Cu"": 1.0, ""S"": 3.0, ""O"": 12.0}",443.674,#FFFFFF,hexagonal
Cuproiridsite,Cu(Ir3+Ir4+)S4,"{""Cu"": 1.0, ""Ir"": 2.0, ""S"": 4.0}",576.226,#A9A9A9,cubic
Cuprokalininite,Cu(Cr3+Cr4+)S4,"{""Cu"": 1.0, ""Cr"": 2.0, ""S"": 4.0}",295.778,#A9A9A9,cubic
Cupromakopavonite,Cu8Pb4Ag3Bi19S38,"{""Cu"": 8.0, ""Pb"": 4.0, ""Ag"": 3.0, ""Bi"": 19.0, ""S"": 38.0}",6849.678,#708090,monoclinic
Cupromakovickyite,Cu4AgPb2Bi9S18,"{""Cu"": 4.0, ""Ag"": 1.0, ""Pb"": 2.0, ""Bi"": 9.0, ""S"": 18.0}",3234.354,#708090,monoclinic
Cupromolybdite,Cu2+3O(Mo6+O4)2,"{""Cu"": 3.0, ""O"": 9.0, ""Mo"": 2.0}",526.529,#00BFFF,orthorhombic
Cuproneyite,Cu7Pb27Bi25S68,"{""Cu"": 7.0, ""Pb"": 27.0, ""Bi"": 25.0, ""S"": 68.0}",13443.802,#708090,monoclinic
Cupropearceite,[Cu6As2S7][Ag9CuS4],"{""Cu"": 7.0, ""As"": 2.0, ""S"": 11.0, ""Ag"": 9.0}",1918.156,#FFD700,hexagonal
Cupropolybasite,[Cu6Sb2S7][Ag9CuS4],"{""Cu"": 7.0, ""Sb"": 2.0, ""S"": 11.0, ""Ag"": 9.0}",2011.832,#A9A9A9,hexagonal
Cuprorivaite,CaCuSi4O10,"{""Ca"": 1.0, ""Cu"": 1.0, ""Si"": 4.0, ""O"": 10.0}",375.954,#FFFFFF,tetragonal
Cuprosenandorite,Ag16Cu8Pb24Sb72S144,"{""Ag"": 16.0, ""Cu"": 8.0, ""Pb"": 24.0, ""Sb"": 72.0, ""S"": 144.0}",20590.448,#708090,orthorhombic
Cuprosklodowskite,Cu(UO2)2(SiO3OH)2·6H2O,"{""Cu"": 1.0, ""U"": 2.0, ""O"": 18.0, ""Si"": 2.0, ""H"": 14.0}",897.87,#FFFFFF,triclinic
Cuprospinel,Cu2+Fe3+2O4,"{""Cu"": 1.0, ""Fe"": 2.0, ""O"": 4.0}",239.232,#00BFFF,cubic
Cuprotungstite,Cu2+3(WO4)2(OH)2,"{""Cu"": 3.0, ""W"": 2.0, ""O"": 10.0, ""H"": 2.0}",720.324,#FFFFFF,tetragonal
Curienite,Pb(UO2)2(VO4)2·5H2O,"{""Pb"": 1.0, ""U"": 2.0, ""O"": 17.0, ""V"": 2.0, ""H"": 10.0}",1067.207,#FFFFFF,orthorhombic
Currierite,Na4Ca3MgAl4(AsO3OH)12·9H2O,"{""Na"": 4.0, ""Ca"": 3.0, ""Mg"": 1.0, ""Al"": 4.0, ""As"": 12.0, ""O"": 57.0, ""H"": 30.0}",2185.674,#FFFFFF,hexagonal
Cuspidine,Ca8(Si2O7)2F4,"{""Ca"": 8.0, ""Si"": 4.0, ""O"": 14.0, ""F"": 4.0}",732.942,#FFFFFF,monoclinic
Cuzticite,Fe3+2Te6+O6·3H2O,"{""Fe"": 2.0, ""Te"": 1.0, ""O"": 9.0, ""H"": 6.0}",389.329,#556B2F,hexagonal
Cyanochroite,K2Cu(SO4)2·6H2O,"{""K"": 2.0, ""Cu"": 1.0, ""S"": 2.0, ""O"": 14.0, ""H"": 12.0}",441.944,#FFFFFF,monoclinic
Cyanotrichite,Cu4Al2(SO4)(OH)12(H2O)2,"{""Cu"": 4.0, ""Al"": 2.0, ""S"": 1.0, ""O"": 18.0, ""H"": 16.0}",644.318,#FFFFFF,
Cyrilovite,NaFe3+3(PO4)2(OH)4·2H2O,"{""Na"": 1.0, ""Fe"": 3.0, ""P"": 2.0, ""O"": 14.0, ""H"": 8.0}",484.523,#556B2F,tetragonal
Czochralskiite,Na4Ca3Mg(PO4)4,"{""Na"": 4.0, ""Ca"": 3.0, ""Mg"": 1.0, ""P"": 4.0, ""O"": 16.0}",616.379,#FFFFFF,orthorhombic
Dansite,Na21Mg(SO4)10Cl3,"{""Na"": 21.0, ""Mg"": 1.0, ""S"": 10.0, ""O"": 40.0, ""Cl"": 3.0}",1574.005,#FFFFFF,cubic
Dansite-(Fe),Na21Fe(SO4)10Cl3,"{""Na"": 21.0, ""Fe"": 1.0, ""S"": 10.0, ""O"": 40.0, ""Cl"": 3.0}",1605.545,#556B2F,cubic
Dachiardite-Ca,Ca2(Si20Al4)O48·13H2O,"{""Ca"": 2.0, ""Si"": 20.0, ""Al"": 4.0, ""O"": 61.0, ""H"": 26.0}",1751.931,#FFFFFF,monoclinic
Dachiardite-K,K4(Si20Al4)O48·13H2O,"{""K"": 4.0, ""Si"": 20.0, ""Al"": 4.0, ""O"": 61.0, ""H"": 26.0}",1828.167,#FFFFFF,monoclinic
Dachiardite-Na,Na4(Si20Al4)O48·13H2O,"{""Na"": 4.0, ""Si"": 20.0, ""Al"": 4.0, ""O"": 61.0, ""H"": 26.0}",1763.735,#FFFFFF,monoclinic
Dacostaite,K(Mg2Al)[Mg(H2O)6]2(AsO4)2F6·2H2O,"{""K"": 1.0, ""Mg"": 4.0, ""Al"": 1.0, ""H"": 28.0, ""O"": 22.0, ""As"": 2.0, ""F"": 6.0}",807.334,#FFFFFF,monoclinic
Dadsonite,Pb23Sb25S60Cl,"{""Pb"": 23.0, ""Sb"": 25.0, ""S"": 60.0, ""Cl"": 1.0}",9768.65,#708090,triclinic
Daliranite,PbHgAs2S5,"{""Pb"": 1.0, ""Hg"": 1.0, ""As"": 2.0, ""S"": 5.0}",717.934,#708090,monoclinic
Dalyite,K2ZrSi6O15,"{""K"": 2.0, ""Zr"": 1.0, ""Si"": 6.0, ""O"": 15.0}",577.915,#FFFFFF,triclinic
Damaraite,Pb3O2(OH)Cl,"{""Pb"": 3.0, ""O"": 3.0, ""H"": 1.0, ""Cl"": 1.0}",706.055,#FFFFFF,orthorhombic
Danalite,Be3Fe2+4(SiO4)3S,"{""Be"": 3.0, ""Fe"": 4.0, ""Si"": 3.0, ""O"": 12.0, ""S"": 1.0}",558.7196,#556B2F,cubic
Danburite,CaB2Si2O8,"{""Ca"": 1.0, ""B"": 2.0, ""Si"": 2.0, ""O"": 8.0}",245.86,#FFFFFF,orthorhombic
Dantopaite,Ag5Bi13S22,"{""Ag"": 5.0, ""Bi"": 13.0, ""S"": 22.0}",3961.41,#A9A9A9,monoclinic
Daomanite,CuPtAsS2,"{""Cu"": 1.0, ""Pt"": 1.0, ""As"": 1.0, ""S"": 2.0}",397.668,#FFD700,monoclinic
Daqingshanite-(Ce),Sr3Ce(PO4)(CO3)3,"{""Sr"": 3.0, ""Ce"": 1.0, ""P"": 1.0, ""O"": 13.0, ""C"": 3.0}",677.974,#FFFFFF,hexagonal
Darapskite,Na3(SO4)(NO3)·H2O,"{""Na"": 3.0, ""S"": 1.0, ""O"": 8.0, ""N"": 1.0, ""H"": 2.0}",245.045,#FFFFFF,monoclinic
Dargaite,BaCa12(SiO4)4(SO4)2O3,"{""Ba"": 1.0, ""Ca"": 12.0, ""Si"": 4.0, ""O"": 27.0, ""S"": 2.0}",1226.699,#FFFFFF,hexagonal
Darrellhenryite,Na(Al2Li)Al6(Si6O18)(BO3)3(OH)3O,"{""Na"": 1.0, ""Al"": 8.0, ""Li"": 1.0, ""Si"": 6.0, ""O"": 31.0, ""B"": 3.0, ""H"": 3.0}",945.719,#FFFFFF,hexagonal
Dashkovaite,Mg(HCOO)2·2H2O,"{""Mg"": 1.0, ""H"": 6.0, ""C"": 2.0, ""O"": 6.0}",150.369,#FFFFFF,monoclinic
Datolite,CaB(SiO4)(OH),"{""Ca"": 1.0, ""B"": 1.0, ""Si"": 1.0, ""O"": 5.0, ""H"": 1.0}",159.976,#FFFFFF,monoclinic
Daubreeite,BiO(OH),"{""Bi"": 1.0, ""O"": 2.0, ""H"": 1.0}",241.986,#D2B48C,tetragonal
Daubreelite,FeCr2S4,"{""Fe"": 1.0, ""Cr"": 2.0, ""S"": 4.0}",288.077,#DAA520,cubic
Davanite,K2TiSi6O15,"{""K"": 2.0, ""Ti"": 1.0, ""Si"": 6.0, ""O"": 15.0}",534.558,#FFFFFF,triclinic
Davemaoite,CaSiO3,"{""Ca"": 1.0, ""Si"": 1.0, ""O"": 3.0}",116.16,#FFFFFF,cubic
Davinciite,Na12K3Ca6Fe2+3Zr3(Si26O73OH)Cl2,"{""Na"": 12.0, ""K"": 3.0, ""Ca"": 6.0, ""Fe"": 3.0, ""Zr"": 3.0, ""Si"": 26.0, ""O"": 74.0, ""H"": 1.0, ""Cl"": 2.0}",3060.893,#556B2F,hexagonal
Davisite,CaScAlSiO6,"{""Ca"": 1.0, ""Sc"": 1.0, ""Al"": 1.0, ""Si"": 1.0, ""O"": 6.0}",236.095,#FFFFFF,monoclinic
Dawsonite,NaAl(CO3)(OH)2,"{""Na"": 1.0, ""Al"": 1.0, ""C"": 1.0, ""O"": 5.0, ""H"": 2.0}",143.994,#FFFFFF,orthorhombic
Deanesmithite,Hg1+2Hg2+3S2O(CrO4),"{""Hg"": 5.0, ""S"": 2.0, ""O"": 5.0, ""Cr"": 1.0}",1199.061,#FFFFFF,triclinic
Decagonite,Al71Ni24Fe5,"{""Al"": 71.0, ""Ni"": 24.0, ""Fe"": 5.0}",3603.579,#7FFF00,
Decrespignyite-(Y),Y4Cu(CO3)4Cl(OH)5·2H2O,"{""Y"": 4.0, ""Cu"": 1.0, ""C"": 4.0, ""O"": 19.0, ""Cl"": 1.0, ""H"": 9.0}",815.717,#FFFFFF,hexagonal
Deerite,Fe2+6Fe3+3(Si6O17)O3(OH)5,"{""Fe"": 9.0, ""Si"": 6.0, ""O"": 25.0, ""H"": 5.0}",1076.13,#556B2F,monoclinic
Dekatriasartorite,TlPb58As97S204,"{""Tl"": 1.0, ""Pb"": 58.0, ""As"": 97.0, ""S"": 204.0}",26029.654,#708090,monoclinic
Delafossite,Cu1+Fe3+O2,"{""Cu"": 1.0, ""Fe"": 1.0, ""O"": 2.0}",151.389,#00BFFF,hexagonal
Delhayelite,K7Na3Ca5Al2Si14O38F4Cl2,"{""K"": 7.0, ""Na"": 3.0, ""Ca"": 5.0, ""Al"": 2.0, ""Si"": 14.0, ""O"": 38.0, ""F"": 4.0, ""Cl"": 2.0}",1745.054,#FFFFFF,orthorhombic
Deliensite,Fe2+(UO2)2(SO4)2(OH)2·7H2O,"{""Fe"": 1.0, ""U"": 2.0, ""O"": 21.0, ""S"": 2.0, ""H"": 16.0}",948.132,#556B2F,orthorhombic
Dellagiustaite,V2+Al2O4,"{""V"": 1.0, ""Al"": 2.0, ""O"": 4.0}",168.902,#FFFFFF,cubic
Dellaite,Ca6(Si2O7)(SiO4)(OH)2,"{""Ca"": 6.0, ""Si"": 3.0, ""O"": 13.0, ""H"": 2.0}",534.726,#FFFFFF,triclinic
Deloryite,Cu4(UO2)Mo2O8(OH)6,"{""Cu"": 4.0, ""U"": 1.0, ""O"": 16.0, ""Mo"": 2.0, ""H"": 6.0}",946.146,#FFFFFF,monoclinic
Delrioite,Sr(VO3)2·4H2O,"{""Sr"": 1.0, ""V"": 2.0, ""O"": 10.0, ""H"": 8.0}",357.558,#FFFFFF,monoclinic
Deltanitrogen,N,"{""N"": 1.0}",14.007,#FFFFFF,orthorhombic
Delvauxite,CaFe3+4(PO4)2(OH)8·4-5H2O,"{""Ca"": 1.0, ""Fe"": 4.0, ""P"": 2.0, ""O"": 21.0, ""H"": 18.0}",679.529,#556B2F,
Demartinite,K2SiF6,"{""K"": 2.0, ""Si"": 1.0, ""F"": 6.0}",220.269,#FFFFFF,hexagonal
Demesmaekerite,Pb2Cu5(UO2)2(Se4+O3)6(OH)6·2H2O,"{""Pb"": 2.0, ""Cu"": 5.0, ""U"": 2.0, ""O"": 30.0, ""Se"": 6.0, ""H"": 10.0}",2172.066,#FFFFFF,triclinic
Demicheleite-(Br),BiSBr,"{""Bi"": 1.0, ""S"": 1.0, ""Br"": 1.0}",320.944,#A9A9A9,orthorhombic
Demicheleite-(Cl),BiSCl,"{""Bi"": 1.0, ""S"": 1.0, ""Cl"": 1.0}",276.49,#A9A9A9,orthorhombic
Demicheleite-(I),BiSI,"{""Bi"": 1.0, ""S"": 1.0, ""I"": 1.0}",367.94,#A9A9A9,orthorhombic
Dendoraite-(NH4),(NH4)2NaAl(C2O4)(PO3OH)2(H2O)2,"{""N"": 2.0, ""H"": 14.0, ""Na"": 1.0, ""Al"": 1.0, ""C"": 2.0, ""O"": 14.0, ""P"": 2.0}",402.054,#FFFFFF,monoclinic
Denisovite,KCa2Si3O8F,"{""K"": 1.0, ""Ca"": 2.0, ""Si"": 3.0, ""O"": 8.0, ""F"": 1.0}",350.499,#FFFFFF,monoclinic
Derbylite,Fe3+4Ti4+3Sb3+O13(OH),"{""Fe"": 4.0, ""Ti"": 3.0, ""Sb"": 1.0, ""O"": 14.0, ""H"": 1.0}",713.735,#556B2F,monoclinic
Derriksite,Cu4(UO2)(Se4+O3)2(OH)6,"{""Cu"": 4.0, ""U"": 1.0, ""O"": 14.0, ""Se"": 2.0, ""H"": 6.0}",880.19,#FFFFFF,orthorhombic
Dervillite,Ag2AsS2,"{""Ag"": 2.0, ""As"": 1.0, ""S"": 2.0}",354.782,#FFD700,monoclinic
Destinezite,Fe3+2(PO4)(SO4)(OH)·6H2O,"{""Fe"": 2.0, ""P"": 1.0, ""O"": 15.0, ""S"": 1.0, ""H"": 13.0}",427.813,#556B2F,triclinic
Deveroite-(Ce),Ce2(C2O4)3·10H2O,"{""Ce"": 2.0, ""C"": 6.0, ""O"": 22.0, ""H"": 20.0}",724.444,#FFFFFF,monoclinic
Devilliersite,Ca4Ca2Fe3+10O4[(Fe3+10Si2)O36],"{""Ca"": 6.0, ""Fe"": 20.0, ""O"": 40.0, ""Si"": 2.0}",2053.498,#556B2F,triclinic
Devilline,CaCu4(SO4)2(OH)6·3H2O,"{""Ca"": 1.0, ""Cu"": 4.0, ""S"": 2.0, ""O"": 17.0, ""H"": 12.0}",642.461,#FFFFFF,monoclinic
Devitoite,Ba6Fe2+7Fe3+2(Si4O12)2(PO4)2(CO3)O2(OH)4,"{""Ba"": 6.0, ""Fe"": 9.0, ""Si"": 8.0, ""O"": 41.0, ""P"": 2.0, ""C"": 1.0, ""H"": 4.0}",2285.215,#556B2F,triclinic
Dewindtite,H2Pb3(UO2)6O4(PO4)4·12H2O,"{""H"": 26.0, ""Pb"": 3.0, ""U"": 6.0, ""O"": 44.0, ""P"": 4.0}",2903.84,#FFFFFF,orthorhombic
Diaboleite,CuPb2Cl2(OH)4,"{""Cu"": 1.0, ""Pb"": 2.0, ""Cl"": 2.0, ""O"": 4.0, ""H"": 4.0}",616.874,#FFFFFF,tetragonal
Diadochite,Fe3+2(PO4)(SO4)(OH)·6H2O,"{""Fe"": 2.0, ""P"": 1.0, ""O"": 15.0, ""S"": 1.0, ""H"": 13.0}",427.813,#556B2F,
Diamond,C,"{""C"": 1.0}",12.011,#FFFFFF,orthorhombic
Diaoyudaoite,NaAl11O17,"{""Na"": 1.0, ""Al"": 11.0, ""O"": 17.0}",591.775,#FFFFFF,hexagonal
Diaphorite,Ag3Pb2Sb3S8,"{""Ag"": 3.0, ""Pb"": 2.0, ""Sb"": 3.0, ""S"": 8.0}",1359.77,#708090,monoclinic
Diaspore,AlO(OH),"{""Al"": 1.0, ""O"": 2.0, ""H"": 1.0}",59.988,#FFFFFF,orthorhombic
Dickite,Al2Si2O5(OH)4,"{""Al"": 2.0, ""Si"": 2.0, ""O"": 9.0, ""H"": 4.0}",258.157,#FFFFFF,monoclinic
Dickthomssenite,MgV2O6·7H2O,"{""Mg"": 1.0, ""V"": 2.0, ""O"": 13.0, ""H"": 14.0}",348.288,#FFFFFF,monoclinic
Diegogattaite,Na2CaCu2Si8O20·H2O,"{""Na"": 2.0, ""Ca"": 1.0, ""Cu"": 2.0, ""Si"": 8.0, ""O"": 21.0, ""H"": 2.0}",775.825,#FFFFFF,monoclinic
Dienerite,Ni3As,"{""Ni"": 3.0, ""As"": 1.0}",251.001,#7FFF00,
Dietzeite,Ca2(IO3)2(CrO4)·H2O,"{""Ca"": 2.0, ""I"": 2.0, ""O"": 11.0, ""Cr"": 1.0, ""H"": 2.0}",563.957,#FFFFFF,monoclinic
Dimorphite,As4S3,"{""As"": 4.0, ""S"": 3.0}",395.868,#FFD700,orthorhombic
Dinilawiite,[Pb4OAl(OH)6]2(S2O3)2·(S2O3)(H2O)5,"{""Pb"": 8.0, ""O"": 28.0, ""Al"": 2.0, ""H"": 22.0, ""S"": 6.0}",2374.072,#FFFFFF,monoclinic
Dinite,C20H36,"{""C"": 20.0, ""H"": 36.0}",276.508,#FFFFFF,orthorhombic
Diopside,CaMgSi2O6,"{""Ca"": 1.0, ""Mg"": 1.0, ""Si"": 2.0, ""O"": 6.0}",216.547,#FFFFFF,monoclinic
Dioptase,CuSiO3·H2O,"{""Cu"": 1.0, ""Si"": 1.0, ""O"": 4.0, ""H"": 2.0}",157.643,#FFFFFF,hexagonal
Dioskouriite,CaCu4Cl6(OH)4·4H2O,"{""Ca"": 1.0, ""Cu"": 4.0, ""Cl"": 6.0, ""O"": 8.0, ""H"": 12.0}",647.05,#FFFFFF,orthorhombic
Direnzoite,NaK6MgCa2(Al13Si47)O120·36H2O,"{""Na"": 1.0, ""K"": 6.0, ""Mg"": 1.0, ""Ca"": 2.0, ""Al"": 13.0, ""Si"": 47.0, ""O"": 156.0, ""H"": 72.0}",4601.22,#FFFFFF,orthorhombic
Dissakisite-(Ce),CaCe(Al2Mg)[Si2O7][SiO4]O(OH),"{""Ca"": 1.0, ""Ce"": 1.0, ""Al"": 2.0, ""Mg"": 1.0, ""Si"": 3.0, ""O"": 13.0, ""H"": 1.0}",551.717,#FFFFFF,monoclinic
Dissakisite-(La),CaLa(Al2Mg)[Si2O7][SiO4]O(OH),"{""Ca"": 1.0, ""La"": 1.0, ""Al"": 2.0, ""Mg"": 1.0, ""Si"": 3.0, ""O"": 13.0, ""H"": 1.0}",550.507,#FFFFFF,monoclinic
Dittmarite,(NH4)Mg(PO4)·H2O,"{""N"": 1.0, ""H"": 6.0, ""Mg"": 1.0, ""P"": 1.0, ""O"": 5.0}",155.329,#FFFFFF,orthorhombic
Djurleite,Cu31S16,"{""Cu"": 31.0, ""S"": 16.0}",2482.886,#A9A9A9,monoclinic
Dmisokolovite,K3Cu5AlO2(AsO4)4,"{""K"": 3.0, ""Cu"": 5.0, ""Al"": 1.0, ""O"": 18.0, ""As"": 4.0}",1049.676,#FFFFFF,monoclinic
Dmisteinbergite,Ca(Al2Si2O8),"{""Ca"": 1.0, ""Al"": 2.0, ""Si"": 2.0, ""O"": 8.0}",278.204,#FFFFFF,hexagonal
Dmitryivanovite,CaAl2O4,"{""Ca"": 1.0, ""Al"": 2.0, ""O"": 4.0}",158.038,#FFFFFF,monoclinic
Dmitryvarlamovite,Ti2(Fe3+Nb)O8,"{""Ti"": 2.0, ""Fe"": 1.0, ""Nb"": 1.0, ""O"": 8.0}",372.477,#556B2F,orthorhombic
Dobrovolskyite,Na4Ca(SO4)3,"{""Na"": 4.0, ""Ca"": 1.0, ""S"": 3.0, ""O"": 12.0}",420.206,#FFFFFF,hexagonal
Dobsinaite,Ca2Ca(AsO4)2·2H2O,"{""Ca"": 3.0, ""As"": 2.0, ""O"": 10.0, ""H"": 4.0}",434.1,#FFFFFF,monoclinic
Dokuchaevite,Cu8O2(VO4)3Cl3,"{""Cu"": 8.0, ""O"": 14.0, ""V"": 3.0, ""Cl"": 3.0}",991.53,#FFFFFF,triclinic
Dolerophanite,Cu2O(SO4),"{""Cu"": 2.0, ""O"": 5.0, ""S"": 1.0}",239.147,#00BFFF,monoclinic
Dollaseite-(Ce),CaCe(Mg2Al)[Si2O7][SiO4]F(OH),"{""Ca"": 1.0, ""Ce"": 1.0, ""Mg"": 2.0, ""Al"": 1.0, ""Si"": 3.0, ""O"": 12.0, ""F"": 1.0, ""H"": 1.0}",552.039,#FFFFFF,monoclinic
Dolomite,CaMg(CO3)2,"{""Ca"": 1.0, ""Mg"": 1.0, ""C"": 2.0, ""O"": 6.0}",184.399,#FFFFFF,hexagonal
Doloresite,V4+3O4(OH)4,"{""V"": 3.0, ""O"": 8.0, ""H"": 4.0}",284.85,#FFFFFF,monoclinic
Domerockite,Cu4(AsO4)(AsO3OH)(OH)3·H2O,"{""Cu"": 4.0, ""As"": 2.0, ""O"": 12.0, ""H"": 6.0}",602.064,#FFFFFF,triclinic
Domeykite,Cu3As,"{""Cu"": 3.0, ""As"": 1.0}",265.56,#00BFFF,cubic
Dondoellite,Ca2Fe(PO4)2·2H2O,"{""Ca"": 2.0, ""Fe"": 1.0, ""P"": 2.0, ""O"": 10.0, ""H"": 4.0}",361.971,#556B2F,triclinic
Donharrisite,Ni3HgS3,"{""Ni"": 3.0, ""Hg"": 1.0, ""S"": 3.0}",472.849,#A9A9A9,monoclinic
Donnayite-(Y),NaSr3CaY(CO3)6·3H2O,"{""Na"": 1.0, ""Sr"": 3.0, ""Ca"": 1.0, ""Y"": 1.0, ""C"": 6.0, ""O"": 21.0, ""H"": 6.0}",828.927,#FFFFFF,hexagonal
Donowensite,Ca(H2O)3Fe3+2(V2O7)2,"{""Ca"": 1.0, ""H"": 6.0, ""O"": 17.0, ""Fe"": 2.0, ""V"": 4.0}",633.567,#556B2F,triclinic
Donwilhelmsite,CaAl4Si2O11,"{""Ca"": 1.0, ""Al"": 4.0, ""Si"": 2.0, ""O"": 11.0}",380.165,#FFFFFF,hexagonal
Dorallcharite,TlFe3+3(SO4)2(OH)6,"{""Tl"": 1.0, ""Fe"": 3.0, ""S"": 2.0, ""O"": 14.0, ""H"": 6.0}",666.069,#556B2F,hexagonal
Dorfmanite,Na2(PO3OH)·2H2O,"{""Na"": 2.0, ""P"": 1.0, ""O"": 6.0, ""H"": 5.0}",177.988,#FFFFFF,orthorhombic
Dorrite,Ca4[Mg3Fe3+9]O4[Si3Al8Fe3+O36],"{""Ca"": 4.0, ""Mg"": 3.0, ""Fe"": 10.0, ""O"": 40.0, ""Si"": 3.0, ""Al"": 8.0}",1731.748,#556B2F,triclinic
Douglasite,K2Fe2+Cl4·2H2O,"{""K"": 2.0, ""Fe"": 1.0, ""Cl"": 4.0, ""H"": 4.0, ""O"": 2.0}",311.871,#556B2F,
Dovyrenite,Ca6Zr(Si2O7)2(OH)4,"{""Ca"": 6.0, ""Zr"": 1.0, ""Si"": 4.0, ""O"": 18.0, ""H"": 4.0}",736.046,#FFFFFF,orthorhombic
Downeyite,SeO2,"{""Se"": 1.0, ""O"": 2.0}",110.969,#FFFFFF,tetragonal
Downsite,K2(MoO3)3(SO4)·4H2O,"{""K"": 2.0, ""Mo"": 3.0, ""O"": 17.0, ""S"": 1.0, ""H"": 8.0}",678.153,#FFFFFF,monoclinic
Doyleite,Al(OH)3,"{""Al"": 1.0, ""O"": 3.0, ""H"": 3.0}",78.003,#FFFFFF,triclinic
Dozyite,Mg7Al2(Si4Al2)O15(OH)12,"{""Mg"": 7.0, ""Al"": 4.0, ""Si"": 4.0, ""O"": 27.0, ""H"": 12.0}",834.472,#FFFFFF,monoclinic
Dravertite,CuMg(SO4)2,"{""Cu"": 1.0, ""Mg"": 1.0, ""S"": 2.0, ""O"": 8.0}",279.963,#FFFFFF,monoclinic
Dravite,NaMg3Al6(Si6O18)(BO3)3(OH)3(OH),"{""Na"": 1.0, ""Mg"": 3.0, ""Al"": 6.0, ""Si"": 6.0, ""O"": 31.0, ""B"": 3.0, ""H"": 4.0}",958.738,#FFFFFF,triclinic
Dresserite,Ba2Al4(CO3)4(OH)8·3H2O,"{""Ba"": 2.0, ""Al"": 4.0, ""C"": 4.0, ""O"": 23.0, ""H"": 14.0}",812.721,#FFFFFF,orthorhombic
Dreyerite,Bi(VO4),"{""Bi"": 1.0, ""V"": 1.0, ""O"": 4.0}",323.918,#D2B48C,tetragonal
Driekopite,PtBi,"{""Pt"": 1.0, ""Bi"": 1.0}",404.06,#D2B48C,hexagonal
Dritsite,Li2Al4(OH)12Cl2·3H2O,"{""Li"": 2.0, ""Al"": 4.0, ""O"": 15.0, ""H"": 18.0, ""Cl"": 2.0}",450.837,#FFFFFF,hexagonal
Drobecite,Cd(SO4)·4H2O,"{""Cd"": 1.0, ""S"": 1.0, ""O"": 8.0, ""H"": 8.0}",280.526,#FFFFFF,monoclinic
Droninoite,Ni6Fe3+2(OH)16Cl2·4H2O,"{""Ni"": 6.0, ""Fe"": 2.0, ""O"": 20.0, ""H"": 24.0, ""Cl"": 2.0}",878.92,#556B2F,hexagonal
Drugmanite,Pb2Fe3+(PO4)(PO3OH)(OH)2,"{""Pb"": 2.0, ""Fe"": 1.0, ""P"": 2.0, ""O"": 10.0, ""H"": 3.0}",695.207,#556B2F,monoclinic
Drysdallite,MoSe2,"{""Mo"": 1.0, ""Se"": 2.0}",253.892,#FFFFFF,hexagonal
Dubinskaite,Ca4Sc2Al4[Be2Si8O30](OH)2,"{""Ca"": 4.0, ""Sc"": 2.0, ""Al"": 4.0, ""Be"": 2.0, ""Si"": 8.0, ""O"": 32.0, ""H"": 2.0}",1114.8404,#FFFFFF,triclinic
Dufrenoysite,Pb2As2S5,"{""Pb"": 2.0, ""As"": 2.0, ""S"": 5.0}",724.544,#708090,monoclinic
Duftite,PbCu(AsO4)(OH),"{""Pb"": 1.0, ""Cu"": 1.0, ""As"": 1.0, ""O"": 5.0, ""H"": 1.0}",426.671,#FFFFFF,orthorhombic
Dukeite,Bi3+24Cr6+8O57(OH)6·3H2O,"{""Bi"": 24.0, ""Cr"": 8.0, ""O"": 66.0, ""H"": 12.0}",6499.518,#FFFFFF,hexagonal
Dulanggouite,Bi6Te3,"{""Bi"": 6.0, ""Te"": 3.0}",1636.68,#D2B48C,hexagonal
Dumontite,Pb2(UO2)3O2(PO4)2·5H2O,"{""Pb"": 2.0, ""U"": 3.0, ""O"": 21.0, ""P"": 2.0, ""H"": 10.0}",1536.497,#FFFFFF,monoclinic
Dumortierite,AlAl6BSi3O18,"{""Al"": 7.0, ""B"": 1.0, ""Si"": 3.0, ""O"": 18.0}",571.921,#FFFFFF,orthorhombic
Dundasite,PbAl2(CO3)2(OH)4·H2O,"{""Pb"": 1.0, ""Al"": 2.0, ""C"": 2.0, ""O"": 11.0, ""H"": 6.0}",467.223,#FFFFFF,orthorhombic
Durangite,NaAl(AsO4)F,"{""Na"": 1.0, ""Al"": 1.0, ""As"": 1.0, ""O"": 4.0, ""F"": 1.0}",207.888,#FFFFFF,monoclinic
Duranusite,As4S,"{""As"": 4.0, ""S"": 1.0}",331.748,#FFD700,orthorhombic
Dussertite,BaFe3+3(AsO4)(AsO3OH)(OH)6,"{""Ba"": 1.0, ""Fe"": 3.0, ""As"": 2.0, ""O"": 14.0, ""H"": 7.0}",685.751,#556B2F,hexagonal
Duttonite,V4+O(OH)2,"{""V"": 1.0, ""O"": 3.0, ""H"": 2.0}",100.955,#FFFFFF,monoclinic
Dwornikite,Ni(SO4)·H2O,"{""Ni"": 1.0, ""S"": 1.0, ""O"": 5.0, ""H"": 2.0}",172.764,#FFFFFF,monoclinic
Dymkovite,Ni(UO2)2(As3+O3)2·7H2O,"{""Ni"": 1.0, ""U"": 2.0, ""O"": 17.0, ""As"": 2.0, ""H"": 14.0}",970.692,#FFFFFF,monoclinic
Dypingite,Mg5(CO3)4(OH)2·5H2O,"{""Mg"": 5.0, ""C"": 4.0, ""O"": 19.0, ""H"": 12.0}",485.646,#FFFFFF,
Dzharkenite,FeSe2,"{""Fe"": 1.0, ""Se"": 2.0}",213.787,#8B4513,cubic
Dzierzanowskite,CaCu2S2,"{""Ca"": 1.0, ""Cu"": 2.0, ""S"": 2.0}",231.29,#A9A9A9,hexagonal
Earlandite,Ca3(C6H5O7)2·4H2O,"{""Ca"": 3.0, ""C"": 12.0, ""H"": 18.0, ""O"": 18.0}",570.492,#FFFFFF,triclinic
Eastonite,KAlMg2(Si2Al2)O10(OH)2,"{""K"": 1.0, ""Al"": 3.0, ""Mg"": 2.0, ""Si"": 2.0, ""O"": 12.0, ""H"": 2.0}",418.828,#FFFFFF,monoclinic