name,formula,elements,density,color,crystal,pm_ids,gacha_weight
Leisingite,Cu2MgTe6+O6·6H2O,"{""Cu"": 2.0, ""Mg"": 1.0, ""Te"": 1.0, ""O"": 12.0, ""H"": 12.0}",483.081,#FFFFFF,hexagonal,"{47,55}",1.88029e-07
Leiteite,ZnAs3+2O4,"{""Zn"": 1.0, ""As"": 2.0, ""O"": 4.0}",279.22,#808080,monoclinic,"{47,56}",2.2008e-07
Lemanskiite,NaCaCu5(AsO4)4Cl·3H2O,"{""Na"": 1.0, ""Ca"": 1.0, ""Cu"": 5.0, ""As"": 4.0, ""O"": 19.0, ""Cl"": 1.0, ""H"": 6.0}",1025.965,#FFFFFF,monoclinic,{47},1.5015e-07
Lemoynite,Na2CaZr2Si10O26·5-6H2O,"{""Na"": 2.0, ""Ca"": 1.0, ""Zr"": 2.0, ""Si"": 10.0, ""O"": 32.0, ""H"": 12.0}",1073.42,#FFFFFF,monoclinic,{35},1.3774e-08
Lenaite,AgFeS2,"{""Ag"": 1.0, ""Fe"": 1.0, ""S"": 2.0}",227.835,#DAA520,tetragonal,{14},3.279e-09
Lengenbachite,Ag4Cu2Pb18As12S39,"{""Ag"": 4.0, ""Cu"": 2.0, ""Pb"": 18.0, ""As"": 12.0, ""S"": 39.0}",6437.576,#708090,triclinic,{33},2.51e-10
Leningradite,PbCu3(VO4)2Cl2,"{""Pb"": 1.0, ""Cu"": 3.0, ""V"": 2.0, ""O"": 8.0, ""Cl"": 2.0}",698.614,#FFFFFF,orthorhombic,{45},2.3585e-08
Lenoblite,V4+2O4·2H2O,"{""V"": 2.0, ""O"": 6.0, ""H"": 4.0}",201.91,#FFFFFF,unknown,{47},1.5015e-07
Leogangite,Cu10(AsO4)4(SO4)(OH)6·8H2O,"{""Cu"": 10.0, ""As"": 4.0, ""O"": 34.0, ""S"": 1.0, ""H"": 22.0}",1533.35,#FFFFFF,monoclinic,{47},3.003e-09
Leonardsenite,MgAlF5·2H2O,"{""Mg"": 1.0, ""Al"": 1.0, ""F"": 5.0, ""H"": 4.0, ""O"": 2.0}",182.307,#FFFFFF,orthorhombic,{45},1.179e-09
Leonite,K2Mg(SO4)2·4H2O,"{""K"": 2.0, ""Mg"": 1.0, ""S"": 2.0, ""O"": 12.0, ""H"": 8.0}",366.673,#FFFFFF,monoclinic,"{25,45}",1.424e-09
Leoszilardite,Na6Mg(UO2)2(CO3)6·6H2O,"{""Na"": 6.0, ""Mg"": 1.0, ""U"": 2.0, ""O"": 28.0, ""C"": 6.0, ""H"": 12.0}",1170.439,#FFFFFF,monoclinic,{47},1.5015e-07
Lepageite,Mn2+3(Fe3+7Fe2+4)O3[Sb3+5As3+8O34],"{""Mn"": 3.0, ""Fe"": 11.0, ""O"": 37.0, ""Sb"": 5.0, ""As"": 8.0}",2579.248,#556B2F,triclinic,"{47,57}",1.7712e-08
Lepersonnite-(Gd),CaGd2(UO2)24(CO3)8Si4O28·60H2O,"{""Ca"": 1.0, ""Gd"": 2.0, ""U"": 24.0, ""O"": 160.0, ""C"": 8.0, ""Si"": 4.0, ""H"": 120.0}",8956.526,#FFFFFF,orthorhombic,{47},1.5015e-07
Lepersonnite-(Nd),Nd4(UO2)24(SiO4)4(CO3)8(OH)28·48H2O,"{""Nd"": 4.0, ""U"": 24.0, ""O"": 164.0, ""Si"": 4.0, ""C"": 8.0, ""H"": 124.0}",9246.936,#FFFFFF,orthorhombic,{47},1.5015e-07
Lepidocrocite,Fe3+O(OH),"{""Fe"": 1.0, ""O"": 2.0, ""H"": 1.0}",88.851,#8B4513,orthorhombic,"{24,47,48,49,57}",1.444156e-06
Lermontovite,U4+(PO4)(OH)·H2O,"{""U"": 1.0, ""P"": 1.0, ""O"": 6.0, ""H"": 3.0}",368.022,#FFFFFF,orthorhombic,"{23,34}",1.77652e-07
Letovicite,(NH4)3H(SO4)2,"{""N"": 3.0, ""H"": 13.0, ""S"": 2.0, ""O"": 8.0}",247.237,#FFFFFF,monoclinic,"{14,50,54}",4.866e-09
Leucite,K(AlSi2O6),"{""K"": 1.0, ""Al"": 1.0, ""Si"": 2.0, ""O"": 6.0}",218.244,#FFFFFF,cubic,"{8,9,35,50,54}",9.272889e-06
Leucophanite,NaCaBeSi2O6F,"{""Na"": 1.0, ""Ca"": 1.0, ""Be"": 1.0, ""Si"": 2.0, ""O"": 6.0, ""F"": 1.0}",243.2422,#FFFFFF,triclinic,{35},6.89e-10
Leucophoenicite,Mn2+7(SiO4)3(OH)2,"{""Mn"": 7.0, ""Si"": 3.0, ""O"": 14.0, ""H"": 2.0}",694.823,#FFFFFF,monoclinic,{32},1.214e-09
Leucophosphite,KFe3+2(PO4)2(OH)·2H2O,"{""K"": 1.0, ""Fe"": 2.0, ""P"": 2.0, ""O"": 11.0, ""H"": 5.0}",393.765,#556B2F,monoclinic,"{21,31}",1.5467e-08
Leucosphenite,Na4BaTi2B2Si10O30,"{""Na"": 4.0, ""Ba"": 1.0, ""Ti"": 2.0, ""B"": 2.0, ""Si"": 10.0, ""O"": 30.0}",1107.464,#FFFFFF,monoclinic,"{24,35}",4.4673e-08
Levantite,KCa3Al2(SiO4)(Si2O7)(PO4),"{""K"": 1.0, ""Ca"": 3.0, ""Al"": 2.0, ""Si"": 3.0, ""O"": 15.0, ""P"": 1.0}",568.51,#FFFFFF,monoclinic,{51},7.812e-09
Leverettite,Cu3CoCl2(OH)6,"{""Cu"": 3.0, ""Co"": 1.0, ""Cl"": 2.0, ""O"": 6.0, ""H"": 6.0}",422.513,#FFFFFF,hexagonal,{47},1.5015e-07
Levinsonite-(Y),YAl(SO4)2(C2O4)·12H2O,"{""Y"": 1.0, ""Al"": 1.0, ""S"": 2.0, ""O"": 24.0, ""C"": 2.0, ""H"": 24.0}",612.198,#FFFFFF,monoclinic,"{47,53}",4.712e-09
Levyne-Ca,Ca3(Si12Al6)O36·18H2O,"{""Ca"": 3.0, ""Si"": 12.0, ""Al"": 6.0, ""O"": 54.0, ""H"": 36.0}",1519.38,#FFFFFF,hexagonal,{10},1.21495e-07
Levyne-Na,Na6(Si12Al6)O36·18H2O,"{""Na"": 6.0, ""Si"": 12.0, ""Al"": 6.0, ""O"": 54.0, ""H"": 36.0}",1537.086,#FFFFFF,hexagonal,{10},2.33645e-07
Leybovite-K,KCuNa(MgFe3+)(AsO4)3,"{""K"": 1.0, ""Cu"": 1.0, ""Na"": 1.0, ""Mg"": 1.0, ""Fe"": 1.0, ""As"": 3.0, ""O"": 12.0}",622.538,#556B2F,monoclinic,{},1e-06
Leydetite,Fe(UO2)(SO4)2·11H2O,"{""Fe"": 1.0, ""U"": 1.0, ""O"": 21.0, ""S"": 2.0, ""H"": 22.0}",716.15,#556B2F,monoclinic,{47},3.003e-09
Lianbinite,(NH4)(C2H3O3)(C2H4O3),"{""N"": 1.0, ""H"": 11.0, ""C"": 4.0, ""O"": 6.0}",169.133,#FFFFFF,monoclinic,{53},8.547e-08
Liandratite,U6+Nb2O8,"{""U"": 1.0, ""Nb"": 2.0, ""O"": 8.0}",551.834,#ADFF2F,hexagonal,"{34,47}",1.67881e-07
Liangjunite,K2(Mo2O5)(SO4)2·3H2O,"{""K"": 2.0, ""Mo"": 2.0, ""O"": 16.0, ""S"": 2.0, ""H"": 6.0}",596.248,#FFFFFF,triclinic,{},2e-08
Liberite,Li2Be(SiO4),"{""Li"": 2.0, ""Be"": 1.0, ""Si"": 1.0, ""O"": 4.0}",114.9732,#FFFFFF,monoclinic,"{22,34}",5.8216e-08
Libethenite,Cu2(PO4)(OH),"{""Cu"": 2.0, ""P"": 1.0, ""O"": 5.0, ""H"": 1.0}",239.069,#FFFFFF,orthorhombic,{47},1.5015e-08
Liddicoatite,Ca(Li2Al)Al6(Si6O18)(BO3)3(OH)3(OH),"{""Ca"": 1.0, ""Li"": 2.0, ""Al"": 7.0, ""Si"": 6.0, ""O"": 31.0, ""B"": 3.0, ""H"": 4.0}",943.773,#FFFFFF,hexagonal,{},1e-06
Liebauite,Ca3Cu5Si9O26,"{""Ca"": 3.0, ""Cu"": 5.0, ""Si"": 9.0, ""O"": 26.0}",1106.703,#FFFFFF,monoclinic,"{9,26}",1.1874e-07
Liebenbergite,Ni2(SiO4),"{""Ni"": 2.0, ""Si"": 1.0, ""O"": 4.0}",209.467,#7FFF00,orthorhombic,"{7,47,56}",3.01381e-07
Liebermannite,KAlSi3O8,"{""K"": 1.0, ""Al"": 1.0, ""Si"": 3.0, ""O"": 8.0}",278.327,#FFFFFF,tetragonal,{6},6.8293e-08
Liebigite,Ca2(UO2)(CO3)3·11H2O,"{""Ca"": 2.0, ""U"": 1.0, ""O"": 22.0, ""C"": 3.0, ""H"": 22.0}",728.373,#FFFFFF,orthorhombic,{47},1.5015e-07
Liguowuite,WO3,"{""W"": 1.0, ""O"": 3.0}",231.837,#FFFFFF,monoclinic,{34},1.773e-08
Likasite,Cu3(NO3)(OH)5·2H2O,"{""Cu"": 3.0, ""N"": 1.0, ""O"": 10.0, ""H"": 9.0}",373.707,#FFFFFF,orthorhombic,{47},1.5015e-07
Lileyite,Ba2Ti2Na(NaFe2+)Mg(Si2O7)2O2F2,"{""Ba"": 2.0, ""Ti"": 2.0, ""Na"": 2.0, ""Fe"": 1.0, ""Mg"": 1.0, ""Si"": 4.0, ""O"": 16.0, ""F"": 2.0}",902.844,#556B2F,monoclinic,{35},6.89e-10
Lime,CaO,"{""Ca"": 1.0, ""O"": 1.0}",56.077,#FFFFFF,cubic,"{31,38,47,50,51,54}",5.5682e-07
Limousinite,BaCa[Be4P4O16]·6H2O,"{""Ba"": 1.0, ""Ca"": 1.0, ""Be"": 4.0, ""P"": 4.0, ""O"": 22.0, ""H"": 12.0}",701.4268,#FFFFFF,monoclinic,{22},4.049e-09
Linarite,CuPb(SO4)(OH)2,"{""Cu"": 1.0, ""Pb"": 1.0, ""S"": 1.0, ""O"": 6.0, ""H"": 2.0}",400.816,#FFFFFF,monoclinic,"{45,47,55,56}",5.631e-09
Lindackerite,Cu5(AsO4)2(AsO3OH)2·9H2O,"{""Cu"": 5.0, ""As"": 4.0, ""O"": 25.0, ""H"": 20.0}",1037.553,#FFFFFF,triclinic,"{47,55,56}",2.57959e-07
Lindbergite,Mn(C2O4)·2H2O,"{""Mn"": 1.0, ""C"": 2.0, ""O"": 6.0, ""H"": 4.0}",178.986,#FFFFFF,monoclinic,"{47,53}",1.1781e-08
Lindgrenite,Cu3(Mo6+O4)2(OH)2,"{""Cu"": 3.0, ""Mo"": 2.0, ""O"": 10.0, ""H"": 2.0}",544.544,#FFFFFF,monoclinic,{47},1.5015e-07
Lindqvistite,Pb2Mn2+Fe3+16O27,"{""Pb"": 2.0, ""Mn"": 1.0, ""Fe"": 16.0, ""O"": 27.0}",1794.831,#556B2F,hexagonal,{32},1.214e-09
Lindstromite,Pb3Cu3Bi7S15,"{""Pb"": 3.0, ""Cu"": 3.0, ""Bi"": 7.0, ""S"": 15.0}",2755.998,#708090,orthorhombic,{33},2.51e-10
Linekite,K2Ca3[(UO2)(CO3)3]2·8H2O,"{""K"": 2.0, ""Ca"": 3.0, ""U"": 2.0, ""O"": 30.0, ""C"": 6.0, ""H"": 16.0}",1242.654,#FFFFFF,orthorhombic,"{47,55}",1.88029e-07
Lingbaoite,AgTe3,"{""Ag"": 1.0, ""Te"": 3.0}",490.67,#C0C0C0,hexagonal,{33},1.2547e-08
Lingunite,NaAlSi3O8,"{""Na"": 1.0, ""Al"": 1.0, ""Si"": 3.0, ""O"": 8.0}",262.219,#FFFFFF,tetragonal,"{6,30}",1.684451e-06
Linnaeite,Co2+Co3+2S4,"{""Co"": 3.0, ""S"": 4.0}",305.039,#A9A9A9,cubic,"{12,13,37,51}",7.579e-09
Lintisite,Na3LiTi2O2(SiO3)4·2H2O,"{""Na"": 3.0, ""Li"": 1.0, ""Ti"": 2.0, ""O"": 16.0, ""Si"": 4.0, ""H"": 4.0}",544.0,#FFFFFF,monoclinic,{35},4.132e-09
Linzhiite,FeSi2,"{""Fe"": 1.0, ""Si"": 2.0}",112.015,#8B4513,tetragonal,"{7,26,36,38}",4.7169e-07
Liottite,Na16Ca8Si18Al18O72(SO4)5Cl4,"{""Na"": 16.0, ""Ca"": 8.0, ""Si"": 18.0, ""Al"": 18.0, ""O"": 92.0, ""S"": 5.0, ""Cl"": 4.0}",3453.678,#FFFFFF,hexagonal,"{31,35}",8.37e-10
Lipscombite,Fe2+Fe3+2(PO4)2(OH)2,"{""Fe"": 3.0, ""P"": 2.0, ""O"": 10.0, ""H"": 2.0}",391.489,#556B2F,unknown,{22},4.049e-09
Liraite,NaCa2Mn2+2[Fe3+Fe2+]Mn2+2(PO4)6(H2O)2,"{""Na"": 1.0, ""Ca"": 2.0, ""Mn"": 4.0, ""Fe"": 2.0, ""P"": 6.0, ""O"": 26.0, ""H"": 4.0}",1040.438,#556B2F,orthorhombic,{34},8.87e-10
Liroconite,Cu2Al(AsO4)(OH)4·4H2O,"{""Cu"": 2.0, ""Al"": 1.0, ""As"": 1.0, ""O"": 12.0, ""H"": 12.0}",433.08,#FFFFFF,monoclinic,{47},1.5015e-07
Lisanite,CaNiP2O7,"{""Ca"": 1.0, ""Ni"": 1.0, ""P"": 2.0, ""O"": 7.0}",272.712,#FFFFFF,triclinic,{51},7.812e-09
Lisetite,Na2CaAl4(SiO4)4,"{""Na"": 2.0, ""Ca"": 1.0, ""Al"": 4.0, ""Si"": 4.0, ""O"": 16.0}",562.31,#FFFFFF,orthorhombic,{40},1.2225705e-05
Lishizhenite,ZnFe3+2(SO4)4·14H2O,"{""Zn"": 1.0, ""Fe"": 2.0, ""S"": 4.0, ""O"": 30.0, ""H"": 28.0}",813.504,#556B2F,triclinic,{47},3.003e-09
Lisiguangite,CuPtBiS3,"{""Cu"": 1.0, ""Pt"": 1.0, ""Bi"": 1.0, ""S"": 3.0}",563.786,#A9A9A9,orthorhombic,{12},1.55e-09
Lisitsynite,KBSi2O6,"{""K"": 1.0, ""B"": 1.0, ""Si"": 2.0, ""O"": 6.0}",202.072,#FFFFFF,orthorhombic,{35},1.3774e-08
Lislkirchnerite,Pb6Al(OH)8Cl2(NO3)5·2H2O,"{""Pb"": 6.0, ""Al"": 1.0, ""O"": 25.0, ""H"": 12.0, ""Cl"": 2.0, ""N"": 5.0}",1823.188,#FFFFFF,monoclinic,{47},1.5015e-07
Litharge,PbO,"{""Pb"": 1.0, ""O"": 1.0}",223.199,#FFFFFF,tetragonal,"{47,50,54,55,56}",3.37324e-07
Lithiomarsturite,LiCaMn2+3Si5O14(OH),"{""Li"": 1.0, ""Ca"": 1.0, ""Mn"": 3.0, ""Si"": 5.0, ""O"": 15.0, ""H"": 1.0}",593.25,#FFFFFF,triclinic,{34},8.87e-10
Lithiophilite,LiMn2+(PO4),"{""Li"": 1.0, ""Mn"": 1.0, ""P"": 1.0, ""O"": 4.0}",156.848,#FFFFFF,orthorhombic,{34},8.87e-10
Lithiophosphate,Li3(PO4),"{""Li"": 3.0, ""P"": 1.0, ""O"": 4.0}",115.79,#FFFFFF,orthorhombic,"{22,34}",5.822e-09
Lithiotantite,LiTa3O8,"{""Li"": 1.0, ""Ta"": 3.0, ""O"": 8.0}",677.782,#FFFFFF,monoclinic,{34},1.773e-08
Lithiowodginite,LiTa3O8,"{""Li"": 1.0, ""Ta"": 3.0, ""O"": 8.0}",677.782,#FFFFFF,monoclinic,{34},1.773e-08
Lithosite,K3Al2Si4O12(OH),"{""K"": 3.0, ""Al"": 2.0, ""Si"": 4.0, ""O"": 13.0, ""H"": 1.0}",492.593,#FFFFFF,monoclinic,{47},2.1021e-07
Litidionite,KNaCuSi4O10,"{""K"": 1.0, ""Na"": 1.0, ""Cu"": 1.0, ""Si"": 4.0, ""O"": 10.0}",397.964,#FFFFFF,triclinic,{},1e-06
Litochlebite,Ag2PbBi4Se8,"{""Ag"": 2.0, ""Pb"": 1.0, ""Bi"": 4.0, ""Se"": 8.0}",1890.628,#FFFFFF,monoclinic,{33},1.2547e-08
Litvinskite,Na3ZrSi6O13(OH)5,"{""Na"": 3.0, ""Zr"": 1.0, ""Si"": 6.0, ""O"": 18.0, ""H"": 5.0}",621.726,#FFFFFF,monoclinic,{35},1.3774e-08
Liudongshengite,Zn4Cr2(OH)12(CO3)·3H2O,"{""Zn"": 4.0, ""Cr"": 2.0, ""O"": 18.0, ""H"": 18.0, ""C"": 1.0}",683.649,#FFFFFF,hexagonal,{47},1.5015e-07
Liuite,FeTiO3,"{""Fe"": 1.0, ""Ti"": 1.0, ""O"": 3.0}",151.709,#8B4513,orthorhombic,{6},1.4634e-08
Liveingite,Pb20As24S56,"{""Pb"": 20.0, ""As"": 24.0, ""S"": 56.0}",7737.488,#708090,monoclinic,{33},2.51e-10
Liversidgeite,Zn6(PO4)4·7H2O,"{""Zn"": 6.0, ""P"": 4.0, ""O"": 23.0, ""H"": 14.0}",898.265,#FFFFFF,triclinic,{47},1.5015e-08
Livingstonite,HgSb4S6(S)2,"{""Hg"": 1.0, ""Sb"": 4.0, ""S"": 8.0}",944.11,#A9A9A9,monoclinic,{33},2.51e-10
Lizardite,Mg3Si2O5(OH)4,"{""Mg"": 3.0, ""Si"": 2.0, ""O"": 9.0, ""H"": 4.0}",277.108,#FFFFFF,triclinic,"{13,38,40}",1.2540106e-05
Llantenesite,Cu6Al[SeO4](OH)12Cl·3H2O,"{""Cu"": 6.0, ""Al"": 1.0, ""Se"": 1.0, ""O"": 19.0, ""H"": 18.0, ""Cl"": 1.0}",844.804,#FFFFFF,hexagonal,{47},1.5015e-07
Lobanovite,K2Na(Fe2+4Mg2Na)Ti2(Si4O12)2O2(OH)4,"{""K"": 2.0, ""Na"": 2.0, ""Fe"": 4.0, ""Mg"": 2.0, ""Ti"": 2.0, ""Si"": 8.0, ""O"": 30.0, ""H"": 4.0}",1200.582,#556B2F,monoclinic,{35},4.132e-09
Lokkaite-(Y),CaY4(CO3)7·9H2O,"{""Ca"": 1.0, ""Y"": 4.0, ""C"": 7.0, ""O"": 30.0, ""H"": 18.0}",977.893,#FFFFFF,orthorhombic,{47},1.5015e-07
Lollingite,FeAs2,"{""Fe"": 1.0, ""As"": 2.0}",205.689,#8B4513,orthorhombic,"{12,33,34}",1.07797e-07
Lombardoite,Ba2Mn3+(AsO4)2(OH),"{""Ba"": 2.0, ""Mn"": 1.0, ""As"": 2.0, ""O"": 9.0, ""H"": 1.0}",624.441,#FFFFFF,monoclinic,"{22,32,47}",1.0745e-08
Lomonosovite,Na6Na2Ti2Na2Ti2(Si2O7)2(PO4)2O4,"{""Na"": 10.0, ""Ti"": 4.0, ""Si"": 4.0, ""O"": 26.0, ""P"": 2.0}",1011.63,#FFFFFF,triclinic,{35},1.377e-09
Londonite,CsBe4Al4(B11Be)O28,"{""Cs"": 1.0, ""Be"": 5.0, ""Al"": 4.0, ""B"": 11.0, ""O"": 28.0}",852.781,#FFFFFF,cubic,{34},1.773e-08
Lonecreekite,(NH4)Fe3+(SO4)2·12H2O,"{""N"": 1.0, ""H"": 28.0, ""Fe"": 1.0, ""S"": 2.0, ""O"": 20.0}",482.176,#556B2F,cubic,"{45,47,53}",5.184e-09
Lonsdaleite,C,"{""C"": 1.0}",12.011,#FFFFFF,hexagonal,"{6,30,36}",7.08145e-07
Loomisite,Ba[Be2P2O8]·H2O,"{""Ba"": 1.0, ""Be"": 2.0, ""P"": 2.0, ""O"": 9.0, ""H"": 2.0}",363.3094,#FFFFFF,monoclinic,{34},1.773e-09
Lopatkaite,Pb5Sb3AsS11,"{""Pb"": 5.0, ""Sb"": 3.0, ""As"": 1.0, ""S"": 11.0}",1828.862,#708090,monoclinic,{33},2.51e-10
Lopezite,K2Cr2O7,"{""K"": 2.0, ""Cr"": 2.0, ""O"": 7.0}",294.181,#228B22,triclinic,"{25,56}",1.17549e-07
Lorandite,TlAsS2,"{""Tl"": 1.0, ""As"": 1.0, ""S"": 2.0}",343.422,#FFD700,monoclinic,"{23,33}",3.5427e-08
Lorenzenite,Na2Ti2O3(Si2O6),"{""Na"": 2.0, ""Ti"": 2.0, ""O"": 9.0, ""Si"": 2.0}",341.875,#FFFFFF,orthorhombic,{35},4.132e-09
Loseyite,Mn2+4Zn3(CO3)2(OH)10,"{""Mn"": 4.0, ""Zn"": 3.0, ""C"": 2.0, ""O"": 16.0, ""H"": 10.0}",705.978,#FFFFFF,monoclinic,"{23,32}",8.9153e-08
Lotharmeyerite,CaZn2(AsO4)2·2H2O,"{""Ca"": 1.0, ""Zn"": 2.0, ""As"": 2.0, ""O"": 10.0, ""H"": 4.0}",484.704,#FFFFFF,monoclinic,{47},1.5015e-07
Loudounite,NaCa5Zr4Si16O40(OH)11·8H2O,"{""Na"": 1.0, ""Ca"": 5.0, ""Zr"": 4.0, ""Si"": 16.0, ""O"": 59.0, ""H"": 27.0}",2008.793,#FFFFFF,unknown,{47},1.5015e-07
Loughlinite,Na2Mg3Si6O16·8H2O,"{""Na"": 2.0, ""Mg"": 3.0, ""Si"": 6.0, ""O"": 24.0, ""H"": 16.0}",687.509,#FFFFFF,unknown,"{47,50}",2.42814e-07
Louisfuchsite,Ca2(Mg4Ti2)(Al4Si2)O20,"{""Ca"": 2.0, ""Mg"": 4.0, ""Ti"": 2.0, ""Al"": 4.0, ""Si"": 2.0, ""O"": 20.0}",757.188,#FFFFFF,triclinic,{3},6.25e-08
Lovdarite,K2Na6Be4Si14O36·9H2O,"{""K"": 2.0, ""Na"": 6.0, ""Be"": 4.0, ""Si"": 14.0, ""O"": 45.0, ""H"": 18.0}",1383.4738,#FFFFFF,orthorhombic,{35},1.3774e-08
Lovozerite,Na3CaZrSi6O15(OH)3,"{""Na"": 3.0, ""Ca"": 1.0, ""Zr"": 1.0, ""Si"": 6.0, ""O"": 18.0, ""H"": 3.0}",659.788,#FFFFFF,hexagonal,{35},1.3774e-08
Loweite,Na12Mg7(SO4)13·15H2O,"{""Na"": 12.0, ""Mg"": 7.0, ""S"": 13.0, ""O"": 67.0, ""H"": 30.0}",1964.968,#FFFFFF,hexagonal,"{25,45}",1.424e-09
Luanheite,Ag3Hg,"{""Ag"": 3.0, ""Hg"": 1.0}",524.2,#C0C0C0,hexagonal,"{26,33}",5.2547e-08
Luberoite,Pt5Se4,"{""Pt"": 5.0, ""Se"": 4.0}",1291.284,#FFFFFF,monoclinic,"{26,33}",5.2547e-08
Luborzakite,Mn2AsSbS5,"{""Mn"": 2.0, ""As"": 1.0, ""Sb"": 1.0, ""S"": 5.0}",466.858,#FFD700,monoclinic,{33},2.51e-10
Lucasite-(Ce),CeTi2O5(OH),"{""Ce"": 1.0, ""Ti"": 2.0, ""O"": 6.0, ""H"": 1.0}",332.856,#FFFFFF,monoclinic,"{26,35}",1.6132e-08
Lucasite-(La),LaTi2O5(OH),"{""La"": 1.0, ""Ti"": 2.0, ""O"": 6.0, ""H"": 1.0}",331.646,#FFFFFF,monoclinic,{},3e-07
Lucchesiite,CaFe2+3Al6(Si6O18)(BO3)3(OH)3O,"{""Ca"": 1.0, ""Fe"": 3.0, ""Al"": 6.0, ""Si"": 6.0, ""O"": 31.0, ""B"": 3.0, ""H"": 3.0}",1069.438,#556B2F,hexagonal,{34},1.773e-08
Luddenite,Cu2Pb2Si5O14·14H2O,"{""Cu"": 2.0, ""Pb"": 2.0, ""Si"": 5.0, ""O"": 28.0, ""H"": 28.0}",1158.113,#FFFFFF,monoclinic,{47},1.5015e-07
Ludjibaite,Cu5(PO4)2(OH)4,"{""Cu"": 5.0, ""P"": 2.0, ""O"": 12.0, ""H"": 4.0}",575.698,#FFFFFF,triclinic,{47},1.5015e-08
Ludlamite,Fe2+3(PO4)2·4H2O,"{""Fe"": 3.0, ""P"": 2.0, ""O"": 12.0, ""H"": 8.0}",429.535,#556B2F,monoclinic,"{23,34}",1.77652e-07
Ludlockite,PbFe3+4As3+10O22,"{""Pb"": 1.0, ""Fe"": 4.0, ""As"": 10.0, ""O"": 22.0}",1531.778,#556B2F,triclinic,"{46,56}",2.62238e-07
Ludwigite,Mg2Fe3+O2(BO3),"{""Mg"": 2.0, ""Fe"": 1.0, ""O"": 5.0, ""B"": 1.0}",195.26,#556B2F,orthorhombic,"{23,31,45}",1.810469e-06
Lueshite,NaNbO3,"{""Na"": 1.0, ""Nb"": 1.0, ""O"": 3.0}",163.893,#FFFFFF,orthorhombic,{35},1.3774e-08
Luetheite,CuAl(AsO4)(OH)2,"{""Cu"": 1.0, ""Al"": 1.0, ""As"": 1.0, ""O"": 6.0, ""H"": 2.0}",263.46,#FFFFFF,monoclinic,{47},1.5015e-07
Lukechangite-(Ce),Na3Ce2(CO3)4F,"{""Na"": 3.0, ""Ce"": 2.0, ""C"": 4.0, ""O"": 12.0, ""F"": 1.0}",608.24,#FFFFFF,hexagonal,{35},6.89e-10
Lukkulaisvaaraite,Pd14Ag2Te9,"{""Pd"": 14.0, ""Ag"": 2.0, ""Te"": 9.0}",2854.02,#C0C0C0,tetragonal,"{33,37}",8.6621e-08
Lulzacite,Sr2Fe2+3Al4(PO4)4(OH)10,"{""Sr"": 2.0, ""Fe"": 3.0, ""Al"": 4.0, ""P"": 4.0, ""O"": 26.0, ""H"": 10.0}",1000.653,#556B2F,triclinic,{23},1.75879e-07
Lumsdenite,NaCa3Mg2(As3+V4+2V5+10As5+6O51)·45H2O,"{""Na"": 1.0, ""Ca"": 3.0, ""Mg"": 2.0, ""As"": 7.0, ""V"": 12.0, ""O"": 96.0, ""H"": 90.0}",2954.216,#FFFFFF,triclinic,{47},1.5015e-07
Lunokite,MgMn2+Al(PO4)2(OH)·4H2O,"{""Mg"": 1.0, ""Mn"": 1.0, ""Al"": 1.0, ""P"": 2.0, ""O"": 13.0, ""H"": 9.0}",385.232,#FFFFFF,orthorhombic,{34},8.87e-10
Luneburgite,Mg3[B2(OH)6(PO4)2]·6H2O,"{""Mg"": 3.0, ""B"": 2.0, ""O"": 20.0, ""H"": 18.0, ""P"": 2.0}",494.607,#FFFFFF,triclinic,{25},4.762e-09
Luogufengite,Fe2O3,"{""Fe"": 2.0, ""O"": 3.0}",159.687,#8B4513,orthorhombic,"{9,47}",4.34892e-07
Lussierite,Na10[(UO2)(SO4)4](SO4)2(H2O)3,"{""Na"": 10.0, ""U"": 1.0, ""O"": 29.0, ""S"": 6.0, ""H"": 6.0}",1130.309,#FFFFFF,monoclinic,{47},3.003e-09
Luxembourgite,AgCuPbBi4Se8,"{""Ag"": 1.0, ""Cu"": 1.0, ""Pb"": 1.0, ""Bi"": 4.0, ""Se"": 8.0}",1846.304,#FFFFFF,monoclinic,{33},1.2547e-08
Luzonite,Cu3AsS4,"{""Cu"": 3.0, ""As"": 1.0, ""S"": 4.0}",393.8,#FFD700,tetragonal,{12},1.55e-09
Lyonsite,Cu2+3Fe3+4(VO4)6,"{""Cu"": 3.0, ""Fe"": 4.0, ""V"": 6.0, ""O"": 24.0}",1103.646,#556B2F,orthorhombic,"{45,55}",6.1464e-08
Macaulayite,Fe3+24Si4O43(OH)2,"{""Fe"": 24.0, ""Si"": 4.0, ""O"": 45.0, ""H"": 2.0}",2174.591,#556B2F,monoclinic,{47},2.85285e-07
Macdonaldite,BaCa4Si16O36(OH)2·10H2O,"{""Ba"": 1.0, ""Ca"": 4.0, ""Si"": 16.0, ""O"": 48.0, ""H"": 22.0}",1537.13,#FFFFFF,orthorhombic,"{22,32}",6.4758e-08
Macedonite,PbTiO3,"{""Pb"": 1.0, ""Ti"": 1.0, ""O"": 3.0}",303.064,#FFFFFF,orthorhombic,"{32,34}",1.2601e-08
Macfallite,Ca2Mn3+3(SiO4)(Si2O7)(OH)3,"{""Ca"": 2.0, ""Mn"": 3.0, ""Si"": 3.0, ""O"": 14.0, ""H"": 3.0}",556.235,#FFFFFF,monoclinic,"{22,32}",3.238e-09
Machatschkiite,Ca6(AsO4)(AsO3OH)3(PO4)·15H2O,"{""Ca"": 6.0, ""As"": 4.0, ""O"": 35.0, ""H"": 33.0, ""P"": 1.0}",1164.359,#FFFFFF,hexagonal,{47},1.5015e-08
Machiite,Al2Ti3O9,"{""Al"": 2.0, ""Ti"": 3.0, ""O"": 9.0}",341.556,#FFFFFF,monoclinic,"{3,50,54}",8.631e-08
Macivorite,(NH4)3Al5(PO3OH)6(PO4)2·18H2O,"{""N"": 3.0, ""H"": 54.0, ""Al"": 5.0, ""P"": 8.0, ""O"": 50.0}",1279.105,#FFFFFF,hexagonal,{},1e-07
Mackayite,Fe3+Te4+2O5(OH),"{""Fe"": 1.0, ""Te"": 2.0, ""O"": 6.0, ""H"": 1.0}",408.047,#556B2F,tetragonal,{47},1.5015e-07
Mackinawite,FeS,"{""Fe"": 1.0, ""S"": 1.0}",87.905,#DAA520,tetragonal,"{12,13,22,33,37,44,47,49}",3.086e-08
Macphersonite,Pb4(SO4)(CO3)2(OH)2,"{""Pb"": 4.0, ""S"": 1.0, ""O"": 12.0, ""C"": 2.0, ""H"": 2.0}",1078.886,#FFFFFF,orthorhombic,"{47,55}",3.761e-09
Macquartite,Cu2Pb7(CrO4)4(SiO4)2(OH)2,"{""Cu"": 2.0, ""Pb"": 7.0, ""Cr"": 4.0, ""O"": 26.0, ""Si"": 2.0, ""H"": 2.0}",2259.636,#FFFFFF,monoclinic,{47},1.5015e-07
Macraeite,K(H2O)Mn2(Fe2Ti)(PO4)4[O(OH)](H2O)10·4H2O,"{""K"": 1.0, ""H"": 31.0, ""O"": 33.0, ""Mn"": 2.0, ""Fe"": 2.0, ""Ti"": 1.0, ""P"": 4.0}",991.642,#556B2F,monoclinic,{},5e-08
Madeiraite,Na2Ca2Fe2Zr2(Si2O7)2O2F2,"{""Na"": 2.0, ""Ca"": 2.0, ""Fe"": 2.0, ""Zr"": 2.0, ""Si"": 4.0, ""O"": 16.0, ""F"": 2.0}",826.594,#556B2F,monoclinic,{35},6.89e-10
Magadiite,Na2Si14O28(OH)2·8H2O,"{""Na"": 2.0, ""Si"": 14.0, ""O"": 38.0, ""H"": 18.0}",1065.276,#FFFFFF,monoclinic,"{10,14,16,25,35}",1.098169e-06
Magbasite,KBaFe3+Mg7Si8O22(OH)2F6,"{""K"": 1.0, ""Ba"": 1.0, ""Fe"": 1.0, ""Mg"": 7.0, ""Si"": 8.0, ""O"": 24.0, ""H"": 2.0, ""F"": 6.0}",1127.068,#556B2F,orthorhombic,"{23,36}",8.9658e-08
Magganasite,CuFe3+3O(AsO4)3,"{""Cu"": 1.0, ""Fe"": 3.0, ""O"": 13.0, ""As"": 3.0}",663.834,#556B2F,triclinic,{45},2.3585e-08
Maghagendorfite,Na2MgFe2+Fe3+(PO4)3,"{""Na"": 2.0, ""Mg"": 1.0, ""Fe"": 2.0, ""P"": 3.0, ""O"": 12.0}",466.885,#556B2F,unknown,{34},1.773e-09
Maghrebite,MgAl2(AsO4)2(OH)2·8H2O,"{""Mg"": 1.0, ""Al"": 2.0, ""As"": 2.0, ""O"": 18.0, ""H"": 18.0}",534.239,#FFFFFF,triclinic,{47},1.5015e-07