name,formula,elements,density,color,crystal,pm_ids,gacha_weight
Paramarkeyite,Ca2(UO2)(CO3)3·5H2O,"{""Ca"": 2.0, ""U"": 1.0, ""O"": 16.0, ""C"": 3.0, ""H"": 10.0}",620.283,#FFFFFF,monoclinic,{47},1.5015e-07
Paramelaconite,Cu1+2Cu2+2O3,"{""Cu"": 4.0, ""O"": 3.0}",302.181,#00BFFF,tetragonal,"{50,54}",7.9365e-08
Paramendozavilite,NaAl4Fe7(PO4)5(PMo12O40)(OH)16·56H2O,"{""Na"": 1.0, ""Al"": 4.0, ""Fe"": 7.0, ""P"": 6.0, ""O"": 132.0, ""Mo"": 12.0, ""H"": 128.0}",4099.969,#556B2F,unknown,{47},1.5015e-08
Paramolybdomenite,PbSeO3,"{""Pb"": 1.0, ""Se"": 1.0, ""O"": 3.0}",334.168,#FFFFFF,monoclinic,{},1e-06
Paramontroseite,VO2,"{""V"": 1.0, ""O"": 2.0}",82.94,#FFFFFF,orthorhombic,{47},1.5015e-07
Paranatisite,Na2TiO(SiO4),"{""Na"": 2.0, ""Ti"": 1.0, ""O"": 5.0, ""Si"": 1.0}",201.927,#FFFFFF,orthorhombic,{35},4.132e-09
Paranatrolite,Na2(Si3Al2)O10·3H2O,"{""Na"": 2.0, ""Si"": 3.0, ""Al"": 2.0, ""O"": 13.0, ""H"": 6.0}",398.234,#FFFFFF,monoclinic,"{9,35}",2.31286e-07
Parapierrotite,TlSb5S8,"{""Tl"": 1.0, ""Sb"": 5.0, ""S"": 8.0}",1069.66,#A9A9A9,monoclinic,{33},2.51e-10
Pararaisaite,CuMg[Te6+O4(OH)2]·6H2O,"{""Cu"": 1.0, ""Mg"": 1.0, ""Te"": 1.0, ""O"": 12.0, ""H"": 14.0}",421.551,#FFFFFF,monoclinic,"{47,55}",1.88029e-07
Pararammelsbergite,NiAs2,"{""Ni"": 1.0, ""As"": 2.0}",208.537,#7FFF00,orthorhombic,{33},1.2547e-08
Pararealgar,As4S4,"{""As"": 4.0, ""S"": 4.0}",427.928,#FFD700,monoclinic,"{11,12,28,33,55}",2.8114e-08
Pararobertsite,Ca2Mn3+3(PO4)3O2·3H2O,"{""Ca"": 2.0, ""Mn"": 3.0, ""P"": 3.0, ""O"": 17.0, ""H"": 6.0}",615.923,#FFFFFF,monoclinic,{22},2.024e-09
Pararsenolamprite,As,"{""As"": 1.0}",74.922,#808080,orthorhombic,"{33,47}",1.62697e-07
Parascandolaite,KMgF3,"{""K"": 1.0, ""Mg"": 1.0, ""F"": 3.0}",120.397,#FFFFFF,cubic,"{36,45}",2.897e-09
Paraschachnerite,Ag3Hg2,"{""Ag"": 3.0, ""Hg"": 2.0}",724.79,#C0C0C0,orthorhombic,"{33,47}",1.62697e-07
Parascholzite,CaZn2(PO4)2·2H2O,"{""Ca"": 1.0, ""Zn"": 2.0, ""P"": 2.0, ""O"": 10.0, ""H"": 4.0}",396.808,#FFFFFF,monoclinic,{22},4.049e-09
Parascorodite,Fe3+(AsO4)·2H2O,"{""Fe"": 1.0, ""As"": 1.0, ""O"": 6.0, ""H"": 4.0}",230.793,#556B2F,hexagonal,"{47,55}",1.88029e-07
Parasibirskite,Ca2B2O5·H2O,"{""Ca"": 2.0, ""B"": 2.0, ""O"": 6.0, ""H"": 2.0}",199.786,#FFFFFF,monoclinic,{23},1.758794e-06
Parasymplesite,Fe2+3(AsO4)2·8H2O,"{""Fe"": 3.0, ""As"": 2.0, ""O"": 16.0, ""H"": 16.0}",589.491,#556B2F,monoclinic,{47},1.5015e-07
Paratellurite,TeO2,"{""Te"": 1.0, ""O"": 2.0}",159.598,#FFFFFF,tetragonal,{47},1.5015e-07
Paratimroseite,Pb2Cu4(TeO6)2(H2O)2,"{""Pb"": 2.0, ""Cu"": 4.0, ""Te"": 2.0, ""O"": 14.0, ""H"": 4.0}",1151.802,#FFFFFF,orthorhombic,{47},1.5015e-07
Paraumbite,K3Zr2H(Si3O9)2·3H2O,"{""K"": 3.0, ""Zr"": 2.0, ""H"": 7.0, ""Si"": 6.0, ""O"": 21.0}",811.287,#FFFFFF,orthorhombic,"{9,22,35}",1.33e-07
Parauranophane,Ca(UO2)2(SiO3OH)2·5H2O,"{""Ca"": 1.0, ""U"": 2.0, ""O"": 17.0, ""Si"": 2.0, ""H"": 12.0}",856.387,#FFFFFF,monoclinic,{47},1.5015e-07
Paravauxite,Fe2+Al2(PO4)2(OH)2·8H2O,"{""Fe"": 1.0, ""Al"": 2.0, ""P"": 2.0, ""O"": 18.0, ""H"": 18.0}",477.883,#556B2F,triclinic,{22},4.049e-09
Parawulffite,K5Na3Cu8O4(SO4)8,"{""K"": 5.0, ""Na"": 3.0, ""Cu"": 8.0, ""O"": 36.0, ""S"": 8.0}",1605.272,#FFFFFF,monoclinic,{45},4.72e-10
Pargasite,NaCa2(Mg4Al)(Si6Al2)O22(OH)2,"{""Na"": 1.0, ""Ca"": 2.0, ""Mg"": 4.0, ""Al"": 3.0, ""Si"": 6.0, ""O"": 24.0, ""H"": 2.0}",835.814,#FFFFFF,monoclinic,"{8,10,12,16,19,20,22,26,31,34,35,40}",6.6917238e-05
Parisite-(Ce),CaCe2(CO3)3F2,"{""Ca"": 1.0, ""Ce"": 2.0, ""C"": 3.0, ""O"": 9.0, ""F"": 2.0}",538.338,#FFFFFF,monoclinic,"{34,35,36}",3.293e-09
Parisite-(La),CaLa2(CO3)3F2,"{""Ca"": 1.0, ""La"": 2.0, ""C"": 3.0, ""O"": 9.0, ""F"": 2.0}",535.918,#FFFFFF,monoclinic,"{34,35}",1.575e-09
Parisite-(Nd),CaNd2(CO3)3F2,"{""Ca"": 1.0, ""Nd"": 2.0, ""C"": 3.0, ""O"": 9.0, ""F"": 2.0}",546.578,#FFFFFF,monoclinic,{},5e-08
Parkinsonite,Pb7MoO9Cl2,"{""Pb"": 7.0, ""Mo"": 1.0, ""O"": 9.0, ""Cl"": 2.0}",1761.241,#FFFFFF,tetragonal,{47},1.5015e-07
Parnauite,Cu9(AsO4)2(SO4)(OH)10·7H2O,"{""Cu"": 9.0, ""As"": 2.0, ""O"": 29.0, ""S"": 1.0, ""H"": 24.0}",1241.981,#FFFFFF,monoclinic,{47},3.003e-09
Parsonsite,Pb2(UO2)(PO4)2,"{""Pb"": 2.0, ""U"": 1.0, ""O"": 10.0, ""P"": 2.0}",874.368,#FFFFFF,triclinic,{47},1.5015e-08
Partheite,Ca2(Si4Al4)O15(OH)2·4H2O,"{""Ca"": 2.0, ""Si"": 4.0, ""Al"": 4.0, ""O"": 21.0, ""H"": 10.0}",646.483,#FFFFFF,monoclinic,"{16,38,47}",4.72192e-07
Parwanite,NaMg4Al8(PO4)8(CO3)(OH)7·30H2O,"{""Na"": 1.0, ""Mg"": 4.0, ""Al"": 8.0, ""P"": 8.0, ""O"": 72.0, ""C"": 1.0, ""H"": 67.0}",1815.333,#FFFFFF,monoclinic,{52},1.3889e-08
Parwelite,Mn2+10Sb5+2As5+2Si2O24,"{""Mn"": 10.0, ""Sb"": 2.0, ""As"": 2.0, ""Si"": 2.0, ""O"": 24.0}",1382.89,#FFFFFF,monoclinic,{32},1.214e-09
Pasavaite,Pd3Pb2Te2,"{""Pd"": 3.0, ""Pb"": 2.0, ""Te"": 2.0}",988.86,#FFFFFF,orthorhombic,{33},1.2547e-08
Pascoite,Ca3V5+10O28·17H2O,"{""Ca"": 3.0, ""V"": 10.0, ""O"": 45.0, ""H"": 34.0}",1383.881,#FFFFFF,monoclinic,"{47,55}",1.88029e-07
Patronite,VS4,"{""V"": 1.0, ""S"": 4.0}",179.182,#A9A9A9,monoclinic,"{33,50}",9.84e-10
Pattersonite,PbFe3(PO4)2(OH)5·H2O,"{""Pb"": 1.0, ""Fe"": 3.0, ""P"": 2.0, ""O"": 14.0, ""H"": 7.0}",667.725,#556B2F,triclinic,{47},1.5015e-08
Patynite,NaKCa4[Si9O23],"{""Na"": 1.0, ""K"": 1.0, ""Ca"": 4.0, ""Si"": 9.0, ""O"": 23.0}",843.142,#FFFFFF,triclinic,{31},3.6517e-08
Pauflerite,VO(SO4),"{""V"": 1.0, ""O"": 5.0, ""S"": 1.0}",162.997,#FFFF00,orthorhombic,"{36,45}",1.159e-09
Pauladamsite,Cu4(SeO3)(SO4)(OH)4·2H2O,"{""Cu"": 4.0, ""Se"": 1.0, ""O"": 13.0, ""S"": 1.0, ""H"": 8.0}",581.266,#FFFFFF,triclinic,{47},3.003e-09
Paulgrothite,Cu9Fe3+O4(PO4)4Cl,"{""Cu"": 9.0, ""Fe"": 1.0, ""O"": 20.0, ""P"": 4.0, ""Cl"": 1.0}",1107.085,#556B2F,orthorhombic,{45},2.358e-09
Paulisite,Ca2Zn(CO3)3·2H2O,"{""Ca"": 2.0, ""Zn"": 1.0, ""C"": 3.0, ""O"": 11.0, ""H"": 4.0}",361.59,#FFFFFF,monoclinic,{},1e-06
Paulkellerite,Bi3+2Fe3+O2(PO4)(OH)2,"{""Bi"": 2.0, ""Fe"": 1.0, ""O"": 8.0, ""P"": 1.0, ""H"": 2.0}",634.787,#556B2F,monoclinic,{47},1.5015e-08
Paulkerrite,[(H2O)K]Mg2(Fe3+2Ti)(PO4)4(OF)(H2O)10·4H2O,"{""H"": 30.0, ""O"": 32.0, ""K"": 1.0, ""Mg"": 2.0, ""Fe"": 2.0, ""Ti"": 1.0, ""P"": 4.0, ""F"": 1.0}",932.367,#556B2F,orthorhombic,"{34,47}",8.394e-09
Paulmooreite,Pb2As3+2O5,"{""Pb"": 2.0, ""As"": 2.0, ""O"": 5.0}",644.239,#808080,monoclinic,"{47,56}",2.2008e-07
Pauloabibite,NaNbO3,"{""Na"": 1.0, ""Nb"": 1.0, ""O"": 3.0}",163.893,#FFFFFF,hexagonal,{36},3.4364e-08
Paulrobinsonite,Ti8Fe4O2,"{""Ti"": 8.0, ""Fe"": 4.0, ""O"": 2.0}",638.314,#8B4513,cubic,{},3e-07
Paulscherrerite,(UO2)(OH)2,"{""U"": 1.0, ""O"": 4.0, ""H"": 2.0}",304.042,#ADFF2F,orthorhombic,{47},1.5015e-07
Pautovite,CsFe2S3,"{""Cs"": 1.0, ""Fe"": 2.0, ""S"": 3.0}",340.78,#DAA520,orthorhombic,"{33,34}",6.06e-10
Pavlovskyite,Ca8(SiO4)2(Si3O10),"{""Ca"": 8.0, ""Si"": 5.0, ""O"": 18.0}",749.031,#FFFFFF,orthorhombic,"{9,31}",1.38879e-07
Pavonite,AgBi3S5,"{""Ag"": 1.0, ""Bi"": 3.0, ""S"": 5.0}",895.11,#A9A9A9,monoclinic,"{31,33}",8.13e-10
Paxite,CuAs2,"{""Cu"": 1.0, ""As"": 2.0}",213.39,#00BFFF,monoclinic,{33},1.2547e-08
Pecoraite,Ni3Si2O5(OH)4,"{""Ni"": 3.0, ""Si"": 2.0, ""O"": 9.0, ""H"": 4.0}",380.272,#FFFFFF,unknown,"{38,47}",2.42743e-07
Pectolite,NaCa2Si3O8(OH),"{""Na"": 1.0, ""Ca"": 2.0, ""Si"": 3.0, ""O"": 9.0, ""H"": 1.0}",332.4,#FFFFFF,triclinic,"{7,10,13,23,31,35,40}",1.4987777e-05
Peisleyite,Na3Al16(PO4)10(SO4)2(OH)17·20H2O,"{""Na"": 3.0, ""Al"": 16.0, ""P"": 10.0, ""O"": 85.0, ""S"": 2.0, ""H"": 57.0}",2291.913,#FFFFFF,triclinic,"{31,47}",3.565e-09
Pekoite,CuPbBi11S18,"{""Cu"": 1.0, ""Pb"": 1.0, ""Bi"": 11.0, ""S"": 18.0}",3146.606,#708090,orthorhombic,{33},2.51e-10
Pekovite,SrB2Si2O8,"{""Sr"": 1.0, ""B"": 2.0, ""Si"": 2.0, ""O"": 8.0}",293.402,#FFFFFF,orthorhombic,{35},1.3774e-08
Peligotite,Na6(UO2)(SO4)4(H2O)4,"{""Na"": 6.0, ""U"": 1.0, ""O"": 22.0, ""S"": 4.0, ""H"": 8.0}",864.252,#FFFFFF,triclinic,"{47,55}",3.761e-09
Pellyite,Ba2CaFe2+2Si6O17,"{""Ba"": 2.0, ""Ca"": 1.0, ""Fe"": 2.0, ""Si"": 6.0, ""O"": 17.0}",866.921,#556B2F,orthorhombic,{32},2.4272e-08
Penberthycroftite,[Al6(AsO4)3(OH)9(H2O)5]·8H2O,"{""Al"": 6.0, ""As"": 3.0, ""O"": 34.0, ""H"": 35.0}",965.904,#FFFFFF,monoclinic,{47},1.5015e-07
Pendevilleite-(Y),Mg2Y3Al(UO2)2(CO3)7(OH)6(H2O)16,"{""Mg"": 2.0, ""Y"": 3.0, ""Al"": 1.0, ""U"": 2.0, ""O"": 47.0, ""C"": 7.0, ""H"": 38.0}",1692.704,#FFFFFF,triclinic,{},1e-06
Penfieldite,Pb2Cl3(OH),"{""Pb"": 2.0, ""Cl"": 3.0, ""O"": 1.0, ""H"": 1.0}",537.757,#FFFFFF,hexagonal,"{47,55,56,57}",4.62041e-07
Pengite,(Pb8Sb3+3)Sb5+9O35,"{""Pb"": 8.0, ""Sb"": 12.0, ""O"": 35.0}",3678.685,#A9A9A9,hexagonal,{},1e-06
Penikisite,BaMg2Al2(PO4)3(OH)3,"{""Ba"": 1.0, ""Mg"": 2.0, ""Al"": 2.0, ""P"": 3.0, ""O"": 15.0, ""H"": 3.0}",575.835,#FFFFFF,monoclinic,"{22,34,47}",2.0837e-08
Penkvilksite,Na2TiSi4O11·2H2O,"{""Na"": 2.0, ""Ti"": 1.0, ""Si"": 4.0, ""O"": 13.0, ""H"": 4.0}",418.206,#FFFFFF,monoclinic,{35},4.132e-09
Pennantite,Mn2+5Al(Si3Al)O10(OH)8,"{""Mn"": 5.0, ""Al"": 2.0, ""Si"": 3.0, ""O"": 18.0, ""H"": 8.0}",708.955,#FFFFFF,orthorhombic,{32},1.214e-09
Penobsquisite,Ca2Fe2+[B9O13(OH)6]Cl·4H2O,"{""Ca"": 2.0, ""Fe"": 1.0, ""B"": 9.0, ""O"": 23.0, ""H"": 14.0, ""Cl"": 1.0}",650.83,#556B2F,monoclinic,{25},4.7619e-08
Penriceite,[Mg(H2O)6][Na(H2O)2Al3(PO4)2F6]·H2O,"{""Mg"": 1.0, ""H"": 18.0, ""O"": 17.0, ""Na"": 1.0, ""Al"": 3.0, ""P"": 2.0, ""F"": 6.0}",594.304,#FFFFFF,monoclinic,{47},7.508e-09
Pentagonite,CaV4+OSi4O10·4H2O,"{""Ca"": 1.0, ""V"": 1.0, ""O"": 15.0, ""Si"": 4.0, ""H"": 8.0}",451.409,#FFFFFF,orthorhombic,{16},1.20482e-07
Pentahydrite,Mg(SO4)·5H2O,"{""Mg"": 1.0, ""S"": 1.0, ""O"": 9.0, ""H"": 10.0}",210.436,#FFFFFF,triclinic,"{45,47,48,50,55}",7.782e-09
Pentahydroborite,CaB2O(OH)6·2H2O,"{""Ca"": 1.0, ""B"": 2.0, ""O"": 9.0, ""H"": 10.0}",215.769,#FFFFFF,triclinic,"{47,48,55}",3.28874e-07
Perboeite-(Ce),(CaCe3)(Al3Fe2+)(Si2O7)(SiO4)3O(OH)2,"{""Ca"": 1.0, ""Ce"": 3.0, ""Al"": 3.0, ""Fe"": 1.0, ""Si"": 5.0, ""O"": 22.0, ""H"": 2.0}",1091.648,#556B2F,monoclinic,"{19,34}",3.4982765e-05
Perboeite-(La),(CaLa3)(Al3Fe2+)[Si2O7][SiO4]3O(OH)2,"{""Ca"": 1.0, ""La"": 3.0, ""Al"": 3.0, ""Fe"": 1.0, ""Si"": 5.0, ""O"": 22.0, ""H"": 2.0}",1088.018,#556B2F,monoclinic,{34},1.773e-08
Perchiazziite,Co2(CO3)(OH)2,"{""Co"": 2.0, ""C"": 1.0, ""O"": 5.0, ""H"": 2.0}",211.888,#FFFFFF,monoclinic,{},1e-06
Percleveite-(Ce),Ce2Si2O7,"{""Ce"": 2.0, ""Si"": 2.0, ""O"": 7.0}",448.403,#FFFFFF,tetragonal,{37},7.4074e-08
Percleveite-(La),La2Si2O7,"{""La"": 2.0, ""Si"": 2.0, ""O"": 7.0}",445.983,#FFFFFF,tetragonal,{37},7.4074e-08
Peretaite,CaSb3+4O4(SO4)2(OH)2·2H2O,"{""Ca"": 1.0, ""Sb"": 4.0, ""O"": 16.0, ""S"": 2.0, ""H"": 6.0}",853.27,#FFFFFF,monoclinic,{47},3.003e-09
Perettiite-(Y),Y2Mn2+4Fe2+Si2B8O24,"{""Y"": 2.0, ""Mn"": 4.0, ""Fe"": 1.0, ""Si"": 2.0, ""B"": 8.0, ""O"": 24.0}",980.035,#556B2F,orthorhombic,{34},8.87e-10
Periclase,MgO,"{""Mg"": 1.0, ""O"": 1.0}",40.304,#FFFFFF,cubic,"{31,36,38,45,49,50,51,54}",6.05789e-07
Perite,PbBiO2Cl,"{""Pb"": 1.0, ""Bi"": 1.0, ""O"": 2.0, ""Cl"": 1.0}",483.628,#FFFFFF,orthorhombic,"{32,47}",1.74422e-07
Perlialite,K9NaCa(Si24Al12)O72·15H2O,"{""K"": 9.0, ""Na"": 1.0, ""Ca"": 1.0, ""Si"": 24.0, ""Al"": 12.0, ""O"": 87.0, ""H"": 30.0}",2834.927,#FFFFFF,hexagonal,"{35,47}",2.13102e-07
Perloffite,BaMn2+2Fe3+2(PO4)3(OH)3,"{""Ba"": 1.0, ""Mn"": 2.0, ""Fe"": 2.0, ""P"": 3.0, ""O"": 15.0, ""H"": 3.0}",694.827,#556B2F,monoclinic,"{34,47}",8.394e-09
Permingeatite,Cu3SbSe4,"{""Cu"": 3.0, ""Sb"": 1.0, ""Se"": 4.0}",628.282,#00BFFF,tetragonal,{12},7.7519e-08
Perovskite,CaTiO3,"{""Ca"": 1.0, ""Ti"": 1.0, ""O"": 3.0}",135.942,#FFFFFF,cubic,"{3,4,5,7,31,35,36,41,50,54}",4.16813e-07
Perraultite,NaBaMn4Ti2(Si2O7)2O2(OH)2F,"{""Na"": 1.0, ""Ba"": 1.0, ""Mn"": 4.0, ""Ti"": 2.0, ""Si"": 4.0, ""O"": 18.0, ""H"": 2.0, ""F"": 1.0}",897.142,#FFFFFF,triclinic,{35},6.89e-10
Perrierite-(Ce),Ce4MgFe3+2Ti2O8(Si2O7)2,"{""Ce"": 4.0, ""Mg"": 1.0, ""Fe"": 2.0, ""Ti"": 2.0, ""O"": 22.0, ""Si"": 4.0}",1256.527,#556B2F,monoclinic,"{9,34,35}",3.3073e-08
Pertoldite,GeO2,"{""Ge"": 1.0, ""O"": 2.0}",104.628,#FFFFFF,hexagonal,{54},4.2735e-08
Pertsevite-(F),Mg2(BO3)F,"{""Mg"": 2.0, ""B"": 1.0, ""O"": 3.0, ""F"": 1.0}",126.415,#FFFFFF,orthorhombic,"{23,35}",8.8628e-08
Pertsevite-(OH),Mg2(BO3)(OH),"{""Mg"": 2.0, ""B"": 1.0, ""O"": 4.0, ""H"": 1.0}",124.424,#FFFFFF,orthorhombic,"{23,35}",1.772568e-06
Petalite,LiAlSi4O10,"{""Li"": 1.0, ""Al"": 1.0, ""Si"": 4.0, ""O"": 10.0}",306.252,#FFFFFF,monoclinic,{34},1.773e-08
Petedunnite,CaZnSi2O6,"{""Ca"": 1.0, ""Zn"": 1.0, ""Si"": 2.0, ""O"": 6.0}",257.622,#FFFFFF,monoclinic,{32},2.4272e-08
Peterandresenite,Mn4Nb6O19·14H2O,"{""Mn"": 4.0, ""Nb"": 6.0, ""O"": 33.0, ""H"": 28.0}",1333.379,#FFFFFF,monoclinic,"{35,47}",8.196e-09
Peterbaylissite,Hg3(CO3)(OH)·2H2O,"{""Hg"": 3.0, ""C"": 1.0, ""O"": 6.0, ""H"": 5.0}",714.815,#FFFFFF,orthorhombic,{47},1.5015e-07
Peterchinite,Zn3Zn2(OH)6As[O3(OH)3],"{""Zn"": 5.0, ""O"": 12.0, ""H"": 9.0, ""As"": 1.0}",602.882,#FFFFFF,monoclinic,{},1e-06
Petermegawite,Al6(Se4+O3)3[SiO3(OH)](OH)9·10H2O,"{""Al"": 6.0, ""Se"": 3.0, ""O"": 32.0, ""Si"": 1.0, ""H"": 30.0}",969.098,#FFFFFF,orthorhombic,{47},1.5015e-07
Petersenite-(Ce),Na4Ce2(CO3)5,"{""Na"": 4.0, ""Ce"": 2.0, ""C"": 5.0, ""O"": 15.0}",672.24,#FFFFFF,monoclinic,{35},1.3774e-08
Petersite-(Ce),Cu6Ce(PO4)3(OH)6·3H2O,"{""Cu"": 6.0, ""Ce"": 1.0, ""P"": 3.0, ""O"": 21.0, ""H"": 12.0}",962.393,#FFFFFF,hexagonal,{47},1.5015e-08
Petersite-(La),Cu6La(PO4)3(OH)6·3H2O,"{""Cu"": 6.0, ""La"": 1.0, ""P"": 3.0, ""O"": 21.0, ""H"": 12.0}",961.183,#FFFFFF,hexagonal,{47},1.5015e-08
Petersite-(Y),Cu6Y(PO4)3(OH)6·3H2O,"{""Cu"": 6.0, ""Y"": 1.0, ""P"": 3.0, ""O"": 21.0, ""H"": 12.0}",911.179,#FFFFFF,hexagonal,{47},1.5015e-08
Petitjeanite,Bi3O(PO4)2(OH),"{""Bi"": 3.0, ""O"": 10.0, ""P"": 2.0, ""H"": 1.0}",849.886,#FFFFFF,triclinic,{47},1.5015e-08
Petricekite,CuSe2,"{""Cu"": 1.0, ""Se"": 2.0}",221.488,#00BFFF,orthorhombic,{33},1.2547e-08
Petrovicite,Cu3HgPbBiSe5,"{""Cu"": 3.0, ""Hg"": 1.0, ""Pb"": 1.0, ""Bi"": 1.0, ""Se"": 5.0}",1202.263,#FFFFFF,orthorhombic,{33},1.2547e-08
Petrovite,Na12Cu2(SO4)8,"{""Na"": 12.0, ""Cu"": 2.0, ""S"": 8.0, ""O"": 32.0}",1171.42,#FFFFFF,monoclinic,{45},4.72e-10
Petrovskaite,AuAgS,"{""Au"": 1.0, ""Ag"": 1.0, ""S"": 1.0}",336.9,#A9A9A9,monoclinic,{33},2.51e-10
Petscheckite,U4+Fe2+Nb2O8,"{""U"": 1.0, ""Fe"": 1.0, ""Nb"": 2.0, ""O"": 8.0}",607.679,#556B2F,hexagonal,{34},1.773e-08
Petterdite,PbCr2(CO3)2(OH)4·H2O,"{""Pb"": 1.0, ""Cr"": 2.0, ""C"": 2.0, ""O"": 11.0, ""H"": 6.0}",517.251,#FFFFFF,orthorhombic,{47},1.5015e-07
Petzite,Ag3AuTe2,"{""Ag"": 3.0, ""Au"": 1.0, ""Te"": 2.0}",775.78,#FFD700,cubic,{33},1.2547e-08
Pezzottaite,CsLiBe2Al2Si6O18,"{""Cs"": 1.0, ""Li"": 1.0, ""Be"": 2.0, ""Al"": 2.0, ""Si"": 6.0, ""O"": 18.0}",668.3304,#FFFFFF,hexagonal,{34},1.773e-08
Pfaffenbergite,KNa3(Al4Si12)O32,"{""K"": 1.0, ""Na"": 3.0, ""Al"": 4.0, ""Si"": 12.0, ""O"": 32.0}",1064.984,#FFFFFF,hexagonal,{},1.4e-06
Pharmacolite,Ca(AsO3OH)·2H2O,"{""Ca"": 1.0, ""As"": 1.0, ""O"": 6.0, ""H"": 5.0}",216.034,#FFFFFF,monoclinic,"{47,55}",1.88029e-07
Pharmacosiderite,KFe3+4(AsO4)3(OH)4·6-7H2O,"{""K"": 1.0, ""Fe"": 4.0, ""As"": 3.0, ""O"": 23.0, ""H"": 18.0}",873.365,#556B2F,cubic,{47},1.5015e-07
Pharmazincite,KZn(AsO4),"{""K"": 1.0, ""Zn"": 1.0, ""As"": 1.0, ""O"": 4.0}",243.396,#FFFFFF,hexagonal,{45},2.3585e-08
Phaunouxite,Ca3(AsO4)2·11H2O,"{""Ca"": 3.0, ""As"": 2.0, ""O"": 19.0, ""H"": 22.0}",596.235,#FFFFFF,triclinic,"{47,55}",1.88029e-07
Phenakite,Be2(SiO4),"{""Be"": 2.0, ""Si"": 1.0, ""O"": 4.0}",110.1054,#FFFFFF,hexagonal,"{23,34}",1.776524e-06
Philipsbornite,PbAl3(AsO4)(AsO3OH)(OH)6,"{""Pb"": 1.0, ""Al"": 3.0, ""As"": 2.0, ""O"": 14.0, ""H"": 7.0}",669.032,#FFFFFF,hexagonal,{47},1.5015e-07
Philipsburgite,Cu5Zn(AsO4)(PO4)(OH)6·H2O,"{""Cu"": 5.0, ""Zn"": 1.0, ""As"": 1.0, ""O"": 15.0, ""P"": 1.0, ""H"": 8.0}",737.055,#FFFFFF,monoclinic,{47},1.5015e-08
Phillipsite-Ca,Ca3(Si10Al6)O32·12H2O,"{""Ca"": 3.0, ""Si"": 10.0, ""Al"": 6.0, ""O"": 44.0, ""H"": 24.0}",1291.124,#FFFFFF,orthorhombic,"{9,10,16,17,22,24,25,35,47,48}",1.321798e-06
Phillipsite-K,K6(Si10Al6)O32·12H2O,"{""K"": 6.0, ""Si"": 10.0, ""Al"": 6.0, ""O"": 44.0, ""H"": 24.0}",1405.478,#FFFFFF,orthorhombic,"{9,10,16,17,22,24,25,35,47,48}",1.423475e-06
Phillipsite-Na,Na6(Si10Al6)O32·12H2O,"{""Na"": 6.0, ""Si"": 10.0, ""Al"": 6.0, ""O"": 44.0, ""H"": 24.0}",1308.83,#FFFFFF,orthorhombic,"{9,10,16,17,22,24,25,35,47,48}",2.541919e-06
Philolithite,Pb12O6Mn7(SO4)(CO3)4Cl4(OH)12,"{""Pb"": 12.0, ""O"": 34.0, ""Mn"": 7.0, ""S"": 1.0, ""C"": 4.0, ""Cl"": 4.0, ""H"": 12.0}",3648.932,#FFFFFF,tetragonal,"{32,47}",3.488e-09
Philrothite,TlAs3S5,"{""Tl"": 1.0, ""As"": 3.0, ""S"": 5.0}",589.446,#FFD700,monoclinic,{33},2.51e-10
Phlogopite,KMg3(AlSi3O10)(OH)2,"{""K"": 1.0, ""Mg"": 3.0, ""Al"": 1.0, ""Si"": 3.0, ""O"": 12.0, ""H"": 2.0}",417.254,#FFFFFF,hexagonal,"{6,7,31,35,36,38,40}",1.2614278e-05
Phoenicochroite,Pb2O(CrO4),"{""Pb"": 2.0, ""O"": 5.0, ""Cr"": 1.0}",546.391,#228B22,monoclinic,"{45,47}",1.73735e-07
Phosgenite,Pb2(CO3)Cl2,"{""Pb"": 2.0, ""C"": 1.0, ""O"": 3.0, ""Cl"": 2.0}",545.308,#FFFFFF,tetragonal,"{47,55,56,57}",4.62041e-07
Phosinaite-(Ce),Na13Ca2Ce(SiO3)4(PO4)4,"{""Na"": 13.0, ""Ca"": 2.0, ""Ce"": 1.0, ""Si"": 4.0, ""O"": 28.0, ""P"": 4.0}",1203.354,#FFFFFF,orthorhombic,{35},1.377e-09
Phosphammite,(NH4)2(PO3OH),"{""N"": 2.0, ""H"": 9.0, ""P"": 1.0, ""O"": 4.0}",132.056,#FFFFFF,monoclinic,"{47,52}",2.8904e-08
Phosphocyclite-(Fe),Fe2+2(P4O12),"{""Fe"": 2.0, ""P"": 4.0, ""O"": 12.0}",427.574,#8B4513,monoclinic,{51},7.812e-09
Phosphocyclite-(Ni),Ni2(P4O12),"{""Ni"": 2.0, ""P"": 4.0, ""O"": 12.0}",433.27,#7FFF00,monoclinic,{51},7.812e-09
Phosphoferrite,Fe2+3(PO4)2·3H2O,"{""Fe"": 3.0, ""P"": 2.0, ""O"": 11.0, ""H"": 6.0}",411.52,#556B2F,orthorhombic,"{34,47}",1.6788e-08
Phosphohedyphane,Ca2Pb3(PO4)3Cl,"{""Ca"": 2.0, ""Pb"": 3.0, ""P"": 3.0, ""O"": 12.0, ""Cl"": 1.0}",1022.116,#FFFFFF,hexagonal,"{45,47}",1.7374e-08
Phosphoinnelite,Na3Ba4Ti3Si4O14(PO4)2O2F,"{""Na"": 3.0, ""Ba"": 4.0, ""Ti"": 3.0, ""Si"": 4.0, ""O"": 24.0, ""P"": 2.0, ""F"": 1.0}",1339.153,#FFFFFF,triclinic,{35},6.89e-10
Phosphophyllite,Zn2Fe2+(PO4)2·4H2O,"{""Zn"": 2.0, ""Fe"": 1.0, ""P"": 2.0, ""O"": 12.0, ""H"": 8.0}",448.605,#556B2F,monoclinic,"{22,47}",1.9064e-08
Phosphorrosslerite,Mg(PO3OH)·7H2O,"{""Mg"": 1.0, ""P"": 1.0, ""O"": 11.0, ""H"": 15.0}",246.388,#FFFFFF,unknown,"{47,55}",1.8803e-08
Phosphosiderite,Fe3+(PO4)·2H2O,"{""Fe"": 1.0, ""P"": 1.0, ""O"": 6.0, ""H"": 4.0}",186.845,#556B2F,monoclinic,"{47,53}",2.3562e-08
Phosphovanadylite-Ba,Ba[V4+4P2O12(OH)4]·12H2O,"{""Ba"": 1.0, ""V"": 4.0, ""P"": 2.0, ""O"": 28.0, ""H"": 28.0}",879.242,#FFFFFF,cubic,{47},1.5015e-08
Phosphovanadylite-Ca,Ca[V4+4P2O12(OH)4]·12H2O,"{""Ca"": 1.0, ""V"": 4.0, ""P"": 2.0, ""O"": 28.0, ""H"": 28.0}",781.99,#FFFFFF,cubic,{47},1.5015e-08
Phosphowalpurgite,(UO2)Bi4O4(PO4)2·2H2O,"{""U"": 1.0, ""O"": 16.0, ""Bi"": 4.0, ""P"": 2.0, ""H"": 4.0}",1395.914,#FFFFFF,triclinic,{47},1.5015e-08
Phosphuranylite,KCa(H3O)3(UO2)7(PO4)4O4·8H2O,"{""K"": 1.0, ""Ca"": 1.0, ""H"": 25.0, ""O"": 45.0, ""U"": 7.0, ""P"": 4.0}",2614.437,#FFFFFF,orthorhombic,{47},1.5015e-08
Phoxite,(NH4)2Mg2(C2O4)(PO3OH)2(H2O)4,"{""N"": 2.0, ""H"": 18.0, ""Mg"": 2.0, ""C"": 2.0, ""O"": 16.0, ""P"": 2.0}",436.722,#FFFFFF,monoclinic,{52},1.3889e-08
Phuralumite,Al2[(UO2)3(PO4)2O(OH)](OH)3(H2O)9,"{""Al"": 2.0, ""U"": 3.0, ""O"": 28.0, ""P"": 2.0, ""H"": 22.0}",1300.15,#FFFFFF,monoclinic,{47},1.5015e-08
Phurcalite,Ca2(UO2)3O2(PO4)2·7H2O,"{""Ca"": 2.0, ""U"": 3.0, ""O"": 23.0, ""P"": 2.0, ""H"": 14.0}",1238.283,#FFFFFF,orthorhombic,{47},1.5015e-08
Phylloretine,C18H18,"{""C"": 18.0, ""H"": 18.0}",234.342,#FFFFFF,unknown,"{50,53}",1.221e-07
Phyllotungstite,HCaFe3+3(WO4)6·10H2O,"{""H"": 21.0, ""Ca"": 1.0, ""Fe"": 3.0, ""W"": 6.0, ""O"": 34.0}",1875.787,#556B2F,orthorhombic,{47},1.5015e-07
Picaite,NaCa[AsO3OH][AsO2(OH)2],"{""Na"": 1.0, ""Ca"": 1.0, ""As"": 2.0, ""O"": 8.0, ""H"": 3.0}",343.928,#FFFFFF,monoclinic,{47},1.5015e-07