name,formula,elements,density,color,crystal_system,dna
Olkhonskite,Cr2Ti3O9,"{""Cr"": 2.0, ""Ti"": 3.0, ""O"": 9.0}",391.61,#228B22,monoclinic,"{""system"": ""monoclinic"", ""scale"": [0.7, 1.0, 1.3], ""optical"": {""transparent"": 0, ""refraction"": 0.0, ""birefringence"": 0.0}}"
Olmsteadite,KFe2+2NbO2(PO4)2·2H2O,"{""K"": 1.0, ""Fe"": 2.0, ""Nb"": 1.0, ""O"": 12.0, ""P"": 2.0, ""H"": 4.0}",501.68,#556B2F,orthorhombic,"{""system"": ""orthorhombic"", ""scale"": [0.8, 1.0, 1.2], ""optical"": {""transparent"": 0, ""refraction"": 0.0, ""birefringence"": 0.0}}"
Olsacherite,Pb2(Se6+O4)(SO4),"{""Pb"": 2.0, ""Se"": 1.0, ""O"": 8.0, ""S"": 1.0}",653.42,#FFFFFF,orthorhombic,"{""system"": ""orthorhombic"", ""scale"": [0.8, 1.0, 1.2], ""optical"": {""transparent"": 1, ""refraction"": 1.5, ""birefringence"": 0.01}}"
Olsenite,KFe4(PO4)3,"{""K"": 1.0, ""Fe"": 4.0, ""P"": 3.0, ""O"": 12.0}",547.41,#556B2F,orthorhombic,"{""system"": ""orthorhombic"", ""scale"": [0.8, 1.0, 1.2], ""optical"": {""transparent"": 0, ""refraction"": 0.0, ""birefringence"": 0.0}}"
Olshanskyite,Ca2[B3O3(OH)6]OH·3H2O,"{""Ca"": 2.0, ""B"": 3.0, ""O"": 13.0, ""H"": 13.0}",333.69,#FFFFFF,triclinic,"{""system"": ""triclinic"", ""scale"": [0.7, 1.0, 1.3], ""optical"": {""transparent"": 1, ""refraction"": 1.5, ""birefringence"": 0.01}}"
Olympite,LiNa5(PO4)2,"{""Li"": 1.0, ""Na"": 5.0, ""P"": 2.0, ""O"": 8.0}",311.83,#FFFFFF,orthorhombic,"{""system"": ""orthorhombic"", ""scale"": [0.8, 1.0, 1.2], ""optical"": {""transparent"": 1, ""refraction"": 1.5, ""birefringence"": 0.01}}"
Omeiite,OsAs2,"{""Os"": 1.0, ""As"": 2.0}",340.07,#808080,orthorhombic,"{""system"": ""orthorhombic"", ""scale"": [0.8, 1.0, 1.2], ""optical"": {""transparent"": 0, ""refraction"": 0.0, ""birefringence"": 0.0}}"
Ominelite,Fe2+Al3O2(BO3)(SiO4),"{""Fe"": 1.0, ""Al"": 3.0, ""O"": 9.0, ""B"": 1.0, ""Si"": 1.0}",319.69,#556B2F,orthorhombic,"{""system"": ""orthorhombic"", ""scale"": [0.8, 1.0, 1.2], ""optical"": {""transparent"": 0, ""refraction"": 0.0, ""birefringence"": 0.0}}"
Omongwaite,Na2Ca5(SO4)6·3H2O,"{""Na"": 2.0, ""Ca"": 5.0, ""S"": 6.0, ""O"": 27.0, ""H"": 6.0}",876.79,#FFFFFF,monoclinic,"{""system"": ""monoclinic"", ""scale"": [0.7, 1.0, 1.3], ""optical"": {""transparent"": 1, ""refraction"": 1.5, ""birefringence"": 0.01}}"
Omsite,Ni2Fe3+(OH)6[Sb(OH)6],"{""Ni"": 2.0, ""Fe"": 1.0, ""O"": 12.0, ""H"": 12.0, ""Sb"": 1.0}",499.09,#556B2F,hexagonal,"{""system"": ""hexagonal"", ""scale"": [1.0, 1.0, 1.6], ""optical"": {""transparent"": 0, ""refraction"": 0.0, ""birefringence"": 0.0}}"
Ondrusite,CaCu4(AsO4)2(AsO3OH)2·10H2O,"{""Ca"": 1.0, ""Cu"": 4.0, ""As"": 4.0, ""O"": 26.0, ""H"": 22.0}",1032.14,#FFFFFF,triclinic,"{""system"": ""triclinic"", ""scale"": [0.7, 1.0, 1.3], ""optical"": {""transparent"": 1, ""refraction"": 1.5, ""birefringence"": 0.01}}"
Onoratoite,Sb8O11Cl2,"{""Sb"": 8.0, ""O"": 11.0, ""Cl"": 2.0}",1220.98,#A9A9A9,monoclinic,"{""system"": ""monoclinic"", ""scale"": [0.7, 1.0, 1.3], ""optical"": {""transparent"": 0, ""refraction"": 0.0, ""birefringence"": 0.0}}"
Ootannite,Th4+2W6+4O16·5H2O,"{""Th"": 2.0, ""W"": 4.0, ""O"": 21.0, ""H"": 10.0}",1545.52,#FFFFFF,monoclinic,"{""system"": ""monoclinic"", ""scale"": [0.7, 1.0, 1.3], ""optical"": {""transparent"": 1, ""refraction"": 1.5, ""birefringence"": 0.01}}"
Oppenheimerite,Na2(UO2)(SO4)2·3H2O,"{""Na"": 2.0, ""U"": 1.0, ""O"": 13.0, ""S"": 2.0, ""H"": 6.0}",562.18,#FFFFFF,triclinic,"{""system"": ""triclinic"", ""scale"": [0.7, 1.0, 1.3], ""optical"": {""transparent"": 1, ""refraction"": 1.5, ""birefringence"": 0.01}}"
Oregonite,FeNi2As2,"{""Fe"": 1.0, ""Ni"": 2.0, ""As"": 2.0}",323.07,#7FFF00,hexagonal,"{""system"": ""hexagonal"", ""scale"": [1.0, 1.0, 1.6], ""optical"": {""transparent"": 0, ""refraction"": 0.0, ""birefringence"": 0.0}}"
Oreillyite,Cr2N,"{""Cr"": 2.0, ""N"": 1.0}",118.01,#228B22,hexagonal,"{""system"": ""hexagonal"", ""scale"": [1.0, 1.0, 1.6], ""optical"": {""transparent"": 0, ""refraction"": 0.0, ""birefringence"": 0.0}}"
Orishchinite,Ni2P,"{""Ni"": 2.0, ""P"": 1.0}",148.35,#7FFF00,orthorhombic,"{""system"": ""orthorhombic"", ""scale"": [0.8, 1.0, 1.2], ""optical"": {""transparent"": 0, ""refraction"": 0.0, ""birefringence"": 0.0}}"
Orlandiite,Pb3Cl4(Se4+O3)·H2O,"{""Pb"": 3.0, ""Cl"": 4.0, ""Se"": 1.0, ""O"": 4.0, ""H"": 2.0}",908.38,#FFFFFF,triclinic,"{""system"": ""triclinic"", ""scale"": [0.7, 1.0, 1.3], ""optical"": {""transparent"": 1, ""refraction"": 1.5, ""birefringence"": 0.01}}"
Orlovite,KLi2Ti(Si4O10)(OF),"{""K"": 1.0, ""Li"": 2.0, ""Ti"": 1.0, ""Si"": 4.0, ""O"": 11.0, ""F"": 1.0}",408.21,#FFFFFF,monoclinic,"{""system"": ""monoclinic"", ""scale"": [0.7, 1.0, 1.3], ""optical"": {""transparent"": 1, ""refraction"": 1.5, ""birefringence"": 0.01}}"
Orpiment,As2S3,"{""As"": 2.0, ""S"": 3.0}",246.02,#FFD700,monoclinic,"{""system"": ""monoclinic"", ""scale"": [0.7, 1.0, 1.3], ""optical"": {""transparent"": 0, ""refraction"": 0.0, ""birefringence"": 0.0}}"
Orschallite,Ca3(S4+O3)2(SO4)·12H2O,"{""Ca"": 3.0, ""S"": 3.0, ""O"": 22.0, ""H"": 24.0}",592.61,#FFFFFF,hexagonal,"{""system"": ""hexagonal"", ""scale"": [1.0, 1.0, 1.6], ""optical"": {""transparent"": 1, ""refraction"": 1.5, ""birefringence"": 0.01}}"
Orthobrannerite,U4+U6+Ti4O12(OH)2,"{""U"": 2.0, ""Ti"": 4.0, ""O"": 14.0, ""H"": 2.0}",893.56,#FFFFFF,orthorhombic,"{""system"": ""orthorhombic"", ""scale"": [0.8, 1.0, 1.2], ""optical"": {""transparent"": 1, ""refraction"": 1.5, ""birefringence"": 0.01}}"
Orthoclase,K(AlSi3O8),"{""K"": 1.0, ""Al"": 1.0, ""Si"": 3.0, ""O"": 8.0}",278.35,#FFFFFF,triclinic,"{""system"": ""triclinic"", ""scale"": [0.7, 1.0, 1.3], ""optical"": {""transparent"": 1, ""refraction"": 1.5, ""birefringence"": 0.01}}"
Orthocuproplatinum,Pt3Cu,"{""Pt"": 3.0, ""Cu"": 1.0}",648.79,#00BFFF,orthorhombic,"{""system"": ""orthorhombic"", ""scale"": [0.8, 1.0, 1.2], ""optical"": {""transparent"": 0, ""refraction"": 0.0, ""birefringence"": 0.0}}"
Orthogersdorffite,NiAsS,"{""Ni"": 1.0, ""As"": 1.0, ""S"": 1.0}",165.67,#FFD700,orthorhombic,"{""system"": ""orthorhombic"", ""scale"": [0.8, 1.0, 1.2], ""optical"": {""transparent"": 0, ""refraction"": 0.0, ""birefringence"": 0.0}}"
Orthominasragrite,V4+O(SO4)·5H2O,"{""V"": 1.0, ""O"": 10.0, ""S"": 1.0, ""H"": 10.0}",253.08,#FFFFFF,orthorhombic,"{""system"": ""orthorhombic"", ""scale"": [0.8, 1.0, 1.2], ""optical"": {""transparent"": 1, ""refraction"": 1.5, ""birefringence"": 0.01}}"
Orthoserpierite,CaCu4(SO4)2(OH)6·3H2O,"{""Ca"": 1.0, ""Cu"": 4.0, ""S"": 2.0, ""O"": 17.0, ""H"": 12.0}",642.5,#FFFFFF,orthorhombic,"{""system"": ""orthorhombic"", ""scale"": [0.8, 1.0, 1.2], ""optical"": {""transparent"": 1, ""refraction"": 1.5, ""birefringence"": 0.01}}"
Orthowalpurgite,(UO2)Bi4O4(AsO4)2·2H2O,"{""U"": 1.0, ""O"": 16.0, ""Bi"": 4.0, ""As"": 2.0, ""H"": 4.0}",1483.82,#FFFFFF,orthorhombic,"{""system"": ""orthorhombic"", ""scale"": [0.8, 1.0, 1.2], ""optical"": {""transparent"": 1, ""refraction"": 1.5, ""birefringence"": 0.01}}"
Osarizawaite,Pb(Al2Cu2+)(SO4)2(OH)6,"{""Pb"": 1.0, ""Al"": 2.0, ""Cu"": 1.0, ""S"": 2.0, ""O"": 14.0, ""H"": 6.0}",618.88,#FFFFFF,hexagonal,"{""system"": ""hexagonal"", ""scale"": [1.0, 1.0, 1.6], ""optical"": {""transparent"": 1, ""refraction"": 1.5, ""birefringence"": 0.01}}"
Osarsite,OsAsS,"{""Os"": 1.0, ""As"": 1.0, ""S"": 1.0}",297.21,#FFD700,monoclinic,"{""system"": ""monoclinic"", ""scale"": [0.7, 1.0, 1.3], ""optical"": {""transparent"": 0, ""refraction"": 0.0, ""birefringence"": 0.0}}"
Osbornite,TiN,"{""Ti"": 1.0, ""N"": 1.0}",61.88,#FFFFFF,cubic,"{""system"": ""cubic"", ""scale"": [1.0, 1.0, 1.0], ""optical"": {""transparent"": 1, ""refraction"": 1.5, ""birefringence"": 0.0}}"
Oscarkempffite,Ag10Pb4(Sb17Bi9)S48,"{""Ag"": 10.0, ""Pb"": 4.0, ""Sb"": 17.0, ""Bi"": 9.0, ""S"": 48.0}",7397.12,#708090,orthorhombic,"{""system"": ""orthorhombic"", ""scale"": [0.8, 1.0, 1.2], ""optical"": {""transparent"": 0, ""refraction"": 0.0, ""birefringence"": 0.0}}"
Oskarssonite,AlF3,"{""Al"": 1.0, ""F"": 3.0}",83.98,#FFFFFF,hexagonal,"{""system"": ""hexagonal"", ""scale"": [1.0, 1.0, 1.6], ""optical"": {""transparent"": 1, ""refraction"": 1.5, ""birefringence"": 0.01}}"
Osmium,Os,"{""Os"": 1.0}",190.23,#FFFFFF,hexagonal,"{""system"": ""hexagonal"", ""scale"": [1.0, 1.0, 1.6], ""optical"": {""transparent"": 1, ""refraction"": 1.5, ""birefringence"": 0.01}}"
Osumilite,KFe2(Al5Si10)O30,"{""K"": 1.0, ""Fe"": 2.0, ""Al"": 5.0, ""Si"": 10.0, ""O"": 30.0}",1046.6,#556B2F,hexagonal,"{""system"": ""hexagonal"", ""scale"": [1.0, 1.0, 1.6], ""optical"": {""transparent"": 0, ""refraction"": 0.0, ""birefringence"": 0.0}}"
Osumilite-(Mg),KMg2Al3(Al2Si10)O30,"{""K"": 1.0, ""Mg"": 2.0, ""Al"": 5.0, ""Si"": 10.0, ""O"": 30.0}",983.52,#FFFFFF,hexagonal,"{""system"": ""hexagonal"", ""scale"": [1.0, 1.0, 1.6], ""optical"": {""transparent"": 1, ""refraction"": 1.5, ""birefringence"": 0.01}}"
Oswaldpeetersite,(UO2)2(CO3)(OH)2·4H2O,"{""U"": 2.0, ""O"": 13.0, ""C"": 1.0, ""H"": 10.0}",706.15,#FFFFFF,monoclinic,"{""system"": ""monoclinic"", ""scale"": [0.7, 1.0, 1.3], ""optical"": {""transparent"": 1, ""refraction"": 1.5, ""birefringence"": 0.01}}"
Otavite,Cd(CO3),"{""Cd"": 1.0, ""C"": 1.0, ""O"": 3.0}",172.42,#FFFFFF,hexagonal,"{""system"": ""hexagonal"", ""scale"": [1.0, 1.0, 1.6], ""optical"": {""transparent"": 1, ""refraction"": 1.5, ""birefringence"": 0.01}}"
Otjisumeite,PbGe4O9,"{""Pb"": 1.0, ""Ge"": 4.0, ""O"": 9.0}",641.72,#FFFFFF,triclinic,"{""system"": ""triclinic"", ""scale"": [0.7, 1.0, 1.3], ""optical"": {""transparent"": 1, ""refraction"": 1.5, ""birefringence"": 0.01}}"
Ottensite,Na3(Sb2O3)3(SbS3)·3H2O,"{""Na"": 3.0, ""Sb"": 7.0, ""O"": 12.0, ""S"": 3.0, ""H"": 6.0}",1215.52,#FFFFFF,hexagonal,"{""system"": ""hexagonal"", ""scale"": [1.0, 1.0, 1.6], ""optical"": {""transparent"": 1, ""refraction"": 1.5, ""birefringence"": 0.01}}"
Ottoite,Pb2TeO5,"{""Pb"": 2.0, ""Te"": 1.0, ""O"": 5.0}",622.0,#FFFFFF,monoclinic,"{""system"": ""monoclinic"", ""scale"": [0.7, 1.0, 1.3], ""optical"": {""transparent"": 1, ""refraction"": 1.5, ""birefringence"": 0.01}}"
Otwayite,Ni2(CO3)(OH)2·H2O,"{""Ni"": 2.0, ""C"": 1.0, ""O"": 6.0, ""H"": 4.0}",229.42,#FFFFFF,orthorhombic,"{""system"": ""orthorhombic"", ""scale"": [0.8, 1.0, 1.2], ""optical"": {""transparent"": 1, ""refraction"": 1.5, ""birefringence"": 0.01}}"
Ourayite,Ag3Pb4Bi5S13,"{""Ag"": 3.0, ""Pb"": 4.0, ""Bi"": 5.0, ""S"": 13.0}",2614.09,#708090,orthorhombic,"{""system"": ""orthorhombic"", ""scale"": [0.8, 1.0, 1.2], ""optical"": {""transparent"": 0, ""refraction"": 0.0, ""birefringence"": 0.0}}"
Oursinite,Co(UO2)2(SiO3OH)2·6H2O,"{""Co"": 1.0, ""U"": 2.0, ""O"": 18.0, ""Si"": 2.0, ""H"": 14.0}",893.28,#FFFFFF,orthorhombic,"{""system"": ""orthorhombic"", ""scale"": [0.8, 1.0, 1.2], ""optical"": {""transparent"": 1, ""refraction"": 1.5, ""birefringence"": 0.01}}"
Ovamboite,Cu10Fe3WGe3S16,"{""Cu"": 10.0, ""Fe"": 3.0, ""W"": 1.0, ""Ge"": 3.0, ""S"": 16.0}",1717.74,#DAA520,cubic,"{""system"": ""cubic"", ""scale"": [1.0, 1.0, 1.0], ""optical"": {""transparent"": 0, ""refraction"": 0.0, ""birefringence"": 0.0}}"
Overite,CaMgAl(PO4)2(OH)·4H2O,"{""Ca"": 1.0, ""Mg"": 1.0, ""Al"": 1.0, ""P"": 2.0, ""O"": 13.0, ""H"": 9.0}",370.38,#FFFFFF,orthorhombic,"{""system"": ""orthorhombic"", ""scale"": [0.8, 1.0, 1.2], ""optical"": {""transparent"": 1, ""refraction"": 1.5, ""birefringence"": 0.01}}"
Owyheeite,Ag3Pb10Sb11S28,"{""Ag"": 3.0, ""Pb"": 10.0, ""Sb"": 11.0, ""S"": 28.0}",4632.65,#708090,monoclinic,"{""system"": ""monoclinic"", ""scale"": [0.7, 1.0, 1.3], ""optical"": {""transparent"": 0, ""refraction"": 0.0, ""birefringence"": 0.0}}"
Oxammite,(NH4)2(C2O4)·H2O,"{""N"": 2.0, ""H"": 10.0, ""C"": 2.0, ""O"": 5.0}",142.12,#FFFFFF,orthorhombic,"{""system"": ""orthorhombic"", ""scale"": [0.8, 1.0, 1.2], ""optical"": {""transparent"": 1, ""refraction"": 1.5, ""birefringence"": 0.01}}"
Oxo-magnesio-hastingsite,NaCa2(Mg2Fe3+3)(Si6Al2)O22O2,"{""Na"": 1.0, ""Ca"": 2.0, ""Mg"": 2.0, ""Fe"": 3.0, ""Si"": 6.0, ""Al"": 2.0, ""O"": 24.0}",925.82,#556B2F,monoclinic,"{""system"": ""monoclinic"", ""scale"": [0.7, 1.0, 1.3], ""optical"": {""transparent"": 0, ""refraction"": 0.0, ""birefringence"": 0.0}}"
Oxycalciomicrolite,Ca2Ta2O7,"{""Ca"": 2.0, ""Ta"": 2.0, ""O"": 7.0}",554.06,#FFFFFF,cubic,"{""system"": ""cubic"", ""scale"": [1.0, 1.0, 1.0], ""optical"": {""transparent"": 1, ""refraction"": 1.5, ""birefringence"": 0.0}}"
Oxycalciopyrochlore,Ca2Nb2O6O,"{""Ca"": 2.0, ""Nb"": 2.0, ""O"": 7.0}",377.98,#FFFFFF,cubic,"{""system"": ""cubic"", ""scale"": [1.0, 1.0, 1.0], ""optical"": {""transparent"": 1, ""refraction"": 1.5, ""birefringence"": 0.0}}"
Oxycalcioromeite,Ca2Sb5+2O7,"{""Ca"": 2.0, ""Sb"": 2.0, ""O"": 7.0}",435.68,#A9A9A9,cubic,"{""system"": ""cubic"", ""scale"": [1.0, 1.0, 1.0], ""optical"": {""transparent"": 0, ""refraction"": 0.0, ""birefringence"": 0.0}}"
Oxy-chromium-dravite,NaCr3(Cr4Mg2)(Si6O18)(BO3)3(OH)3O,"{""Na"": 1.0, ""Cr"": 7.0, ""Mg"": 2.0, ""Si"": 6.0, ""O"": 31.0, ""B"": 3.0, ""H"": 3.0}",1135.6,#FFFFFF,hexagonal,"{""system"": ""hexagonal"", ""scale"": [1.0, 1.0, 1.6], ""optical"": {""transparent"": 1, ""refraction"": 1.5, ""birefringence"": 0.01}}"
Oxy-dravite,Na(Al2Mg)(Al5Mg)(Si6O18)(BO3)3(OH)3O,"{""Na"": 1.0, ""Al"": 7.0, ""Mg"": 2.0, ""Si"": 6.0, ""O"": 31.0, ""B"": 3.0, ""H"": 3.0}",960.46,#FFFFFF,hexagonal,"{""system"": ""hexagonal"", ""scale"": [1.0, 1.0, 1.6], ""optical"": {""transparent"": 1, ""refraction"": 1.5, ""birefringence"": 0.01}}"
Oxykinoshitalite,BaMg2Ti4+O2(Si2Al2)O10,"{""Ba"": 1.0, ""Mg"": 2.0, ""Ti"": 1.0, ""O"": 12.0, ""Si"": 2.0, ""Al"": 2.0}",535.96,#FFFFFF,monoclinic,"{""system"": ""monoclinic"", ""scale"": [0.7, 1.0, 1.3], ""optical"": {""transparent"": 1, ""refraction"": 1.5, ""birefringence"": 0.01}}"
Oxyplumbopyrochlore,Pb2Nb2O6O,"{""Pb"": 2.0, ""Nb"": 2.0, ""O"": 7.0}",712.22,#FFFFFF,cubic,"{""system"": ""cubic"", ""scale"": [1.0, 1.0, 1.0], ""optical"": {""transparent"": 1, ""refraction"": 1.5, ""birefringence"": 0.0}}"
Oxyplumboromeite,Pb2Sb2O7,"{""Pb"": 2.0, ""Sb"": 2.0, ""O"": 7.0}",769.92,#A9A9A9,cubic,"{""system"": ""cubic"", ""scale"": [1.0, 1.0, 1.0], ""optical"": {""transparent"": 0, ""refraction"": 0.0, ""birefringence"": 0.0}}"
Oxy-schorl,Na(Fe2+2Al)Al6(Si6O18)(BO3)3(OH)3O,"{""Na"": 1.0, ""Fe"": 2.0, ""Al"": 7.0, ""Si"": 6.0, ""O"": 31.0, ""B"": 3.0, ""H"": 3.0}",1023.54,#556B2F,hexagonal,"{""system"": ""hexagonal"", ""scale"": [1.0, 1.0, 1.6], ""optical"": {""transparent"": 0, ""refraction"": 0.0, ""birefringence"": 0.0}}"
Oxy-vanadium-dravite,NaV3(V4Mg2)(Si6O18)(BO3)3(OH)3O,"{""Na"": 1.0, ""V"": 7.0, ""Mg"": 2.0, ""Si"": 6.0, ""O"": 31.0, ""B"": 3.0, ""H"": 3.0}",1128.18,#FFFFFF,hexagonal,"{""system"": ""hexagonal"", ""scale"": [1.0, 1.0, 1.6], ""optical"": {""transparent"": 1, ""refraction"": 1.5, ""birefringence"": 0.01}}"
Oxyvanite,V3+2V4+O5,"{""V"": 3.0, ""O"": 5.0}",232.82,#FFFFFF,monoclinic,"{""system"": ""monoclinic"", ""scale"": [0.7, 1.0, 1.3], ""optical"": {""transparent"": 1, ""refraction"": 1.5, ""birefringence"": 0.01}}"
Oxyyttrobetafite-(Y),Y2Ti2O6O,"{""Y"": 2.0, ""Ti"": 2.0, ""O"": 7.0}",385.56,#FFFFFF,cubic,"{""system"": ""cubic"", ""scale"": [1.0, 1.0, 1.0], ""optical"": {""transparent"": 1, ""refraction"": 1.5, ""birefringence"": 0.0}}"
Oyelite,Ca5BSi4O13(OH)3·4H2O,"{""Ca"": 5.0, ""B"": 1.0, ""Si"": 4.0, ""O"": 20.0, ""H"": 11.0}",654.66,#FFFFFF,orthorhombic,"{""system"": ""orthorhombic"", ""scale"": [0.8, 1.0, 1.2], ""optical"": {""transparent"": 1, ""refraction"": 1.5, ""birefringence"": 0.01}}"
Ozernovskite,Fe3+4(Te4+O4)(Te4+O3)4·7H2O,"{""Fe"": 4.0, ""Te"": 5.0, ""O"": 23.0, ""H"": 14.0}",1243.51,#556B2F,monoclinic,"{""system"": ""monoclinic"", ""scale"": [0.7, 1.0, 1.3], ""optical"": {""transparent"": 0, ""refraction"": 0.0, ""birefringence"": 0.0}}"
Ozerovaite,Na2KAl3(AsO4)4,"{""Na"": 2.0, ""K"": 1.0, ""Al"": 3.0, ""As"": 4.0, ""O"": 16.0}",721.7,#FFFFFF,orthorhombic,"{""system"": ""orthorhombic"", ""scale"": [0.8, 1.0, 1.2], ""optical"": {""transparent"": 1, ""refraction"": 1.5, ""birefringence"": 0.01}}"
Paakkonenite,Sb2AsS2,"{""Sb"": 2.0, ""As"": 1.0, ""S"": 2.0}",382.56,#FFD700,monoclinic,"{""system"": ""monoclinic"", ""scale"": [0.7, 1.0, 1.3], ""optical"": {""transparent"": 0, ""refraction"": 0.0, ""birefringence"": 0.0}}"
Pabellondepicaite,Cu2+2(N3C2H2)2(NH3)2(NO3)Cl·2H2O,"{""Cu"": 2.0, ""N"": 9.0, ""C"": 4.0, ""H"": 14.0, ""O"": 5.0, ""Cl"": 1.0}",430.79,#FFFFFF,orthorhombic,"{""system"": ""orthorhombic"", ""scale"": [0.8, 1.0, 1.2], ""optical"": {""transparent"": 1, ""refraction"": 1.5, ""birefringence"": 0.01}}"
Paceite,CaCu(CH3COO)4·6H2O,"{""Ca"": 1.0, ""Cu"": 1.0, ""C"": 8.0, ""H"": 24.0, ""O"": 14.0}",447.9,#FFFFFF,tetragonal,"{""system"": ""tetragonal"", ""scale"": [1.0, 1.0, 1.4], ""optical"": {""transparent"": 1, ""refraction"": 1.5, ""birefringence"": 0.01}}"
Pachnolite,NaCaAlF6·H2O,"{""Na"": 1.0, ""Ca"": 1.0, ""Al"": 1.0, ""F"": 6.0, ""H"": 2.0, ""O"": 1.0}",222.07,#FFFFFF,monoclinic,"{""system"": ""monoclinic"", ""scale"": [0.7, 1.0, 1.3], ""optical"": {""transparent"": 1, ""refraction"": 1.5, ""birefringence"": 0.01}}"
Packratite,Ca11(As3+V5+10V4+2As5+6O51)2·83H2O,"{""Ca"": 11.0, ""As"": 14.0, ""V"": 24.0, ""O"": 185.0, ""H"": 166.0}",5839.65,#FFFFFF,triclinic,"{""system"": ""triclinic"", ""scale"": [0.7, 1.0, 1.3], ""optical"": {""transparent"": 1, ""refraction"": 1.5, ""birefringence"": 0.01}}"
Paddlewheelite,MgCa5Cu2(UO2)4(CO3)12(H2O)33,"{""Mg"": 1.0, ""Ca"": 5.0, ""Cu"": 2.0, ""U"": 4.0, ""O"": 77.0, ""C"": 12.0, ""H"": 66.0}",2746.58,#FFFFFF,monoclinic,"{""system"": ""monoclinic"", ""scale"": [0.7, 1.0, 1.3], ""optical"": {""transparent"": 1, ""refraction"": 1.5, ""birefringence"": 0.01}}"
Padmaite,PdBiSe,"{""Pd"": 1.0, ""Bi"": 1.0, ""Se"": 1.0}",394.36,#D2B48C,cubic,"{""system"": ""cubic"", ""scale"": [1.0, 1.0, 1.0], ""optical"": {""transparent"": 0, ""refraction"": 0.0, ""birefringence"": 0.0}}"
Paganoite,NiBi3+O(AsO4),"{""Ni"": 1.0, ""Bi"": 1.0, ""O"": 5.0, ""As"": 1.0}",422.59,#FFFFFF,triclinic,"{""system"": ""triclinic"", ""scale"": [0.7, 1.0, 1.3], ""optical"": {""transparent"": 1, ""refraction"": 1.5, ""birefringence"": 0.01}}"
Painite,CaZrAl9O15(BO3),"{""Ca"": 1.0, ""Zr"": 1.0, ""Al"": 9.0, ""O"": 18.0, ""B"": 1.0}",672.93,#FFFFFF,hexagonal,"{""system"": ""hexagonal"", ""scale"": [1.0, 1.0, 1.6], ""optical"": {""transparent"": 1, ""refraction"": 1.5, ""birefringence"": 0.01}}"
Pakhomovskyite,Co3(PO4)2·8H2O,"{""Co"": 3.0, ""P"": 2.0, ""O"": 16.0, ""H"": 16.0}",510.86,#FFFFFF,monoclinic,"{""system"": ""monoclinic"", ""scale"": [0.7, 1.0, 1.3], ""optical"": {""transparent"": 1, ""refraction"": 1.5, ""birefringence"": 0.01}}"
Palermoite,Li2SrAl4(PO4)4(OH)4,"{""Li"": 2.0, ""Sr"": 1.0, ""Al"": 4.0, ""P"": 4.0, ""O"": 20.0, ""H"": 4.0}",657.33,#FFFFFF,orthorhombic,"{""system"": ""orthorhombic"", ""scale"": [0.8, 1.0, 1.2], ""optical"": {""transparent"": 1, ""refraction"": 1.5, ""birefringence"": 0.01}}"
Palladinite,PdO,"{""Pd"": 1.0, ""O"": 1.0}",122.42,#FFFFFF,tetragonal,"{""system"": ""tetragonal"", ""scale"": [1.0, 1.0, 1.4], ""optical"": {""transparent"": 1, ""refraction"": 1.5, ""birefringence"": 0.01}}"
Palladium,Pd,"{""Pd"": 1.0}",106.42,#FFFFFF,cubic,"{""system"": ""cubic"", ""scale"": [1.0, 1.0, 1.0], ""optical"": {""transparent"": 1, ""refraction"": 1.5, ""birefringence"": 0.0}}"
Palladoarsenide,Pd2As,"{""Pd"": 2.0, ""As"": 1.0}",287.76,#808080,monoclinic,"{""system"": ""monoclinic"", ""scale"": [0.7, 1.0, 1.3], ""optical"": {""transparent"": 0, ""refraction"": 0.0, ""birefringence"": 0.0}}"
Palladodymite,Pd2As,"{""Pd"": 2.0, ""As"": 1.0}",287.76,#808080,orthorhombic,"{""system"": ""orthorhombic"", ""scale"": [0.8, 1.0, 1.2], ""optical"": {""transparent"": 0, ""refraction"": 0.0, ""birefringence"": 0.0}}"
Palladogermanide,Pd2Ge,"{""Pd"": 2.0, ""Ge"": 1.0}",285.47,#FFFFFF,hexagonal,"{""system"": ""hexagonal"", ""scale"": [1.0, 1.0, 1.6], ""optical"": {""transparent"": 1, ""refraction"": 1.5, ""birefringence"": 0.01}}"