name,formula,elements,density,color,crystal_system,dna
Silvialite,Ca4Al6Si6O24(SO4),"{""Ca"": 4.0, ""Al"": 6.0, ""Si"": 6.0, ""O"": 28.0, ""S"": 1.0}",970.8,#FFFFFF,tetragonal,"{""system"": ""tetragonal"", ""scale"": [1.0, 1.0, 1.4], ""optical"": {""transparent"": 1, ""refraction"": 1.5, ""birefringence"": 0.01}}"
Simferite,LiMg(PO4),"{""Li"": 1.0, ""Mg"": 1.0, ""P"": 1.0, ""O"": 4.0}",126.22,#FFFFFF,orthorhombic,"{""system"": ""orthorhombic"", ""scale"": [0.8, 1.0, 1.2], ""optical"": {""transparent"": 1, ""refraction"": 1.5, ""birefringence"": 0.01}}"
Simmonsite,Na2LiAlF6,"{""Na"": 2.0, ""Li"": 1.0, ""Al"": 1.0, ""F"": 6.0}",193.9,#FFFFFF,monoclinic,"{""system"": ""monoclinic"", ""scale"": [0.7, 1.0, 1.3], ""optical"": {""transparent"": 1, ""refraction"": 1.5, ""birefringence"": 0.01}}"
Simonellite,C19H24,"{""C"": 19.0, ""H"": 24.0}",252.38,#FFFFFF,orthorhombic,"{""system"": ""orthorhombic"", ""scale"": [0.8, 1.0, 1.2], ""optical"": {""transparent"": 1, ""refraction"": 1.5, ""birefringence"": 0.01}}"
Simonite,TlHgAs3S6,"{""Tl"": 1.0, ""Hg"": 1.0, ""As"": 3.0, ""S"": 6.0}",822.09,#FFD700,monoclinic,"{""system"": ""monoclinic"", ""scale"": [0.7, 1.0, 1.3], ""optical"": {""transparent"": 0, ""refraction"": 0.0, ""birefringence"": 0.0}}"
Simplotite,CaV4+4O9·5H2O,"{""Ca"": 1.0, ""V"": 4.0, ""O"": 14.0, ""H"": 10.0}",477.92,#FFFFFF,monoclinic,"{""system"": ""monoclinic"", ""scale"": [0.7, 1.0, 1.3], ""optical"": {""transparent"": 1, ""refraction"": 1.5, ""birefringence"": 0.01}}"
Simpsonite,Al4Ta3O13(OH),"{""Al"": 4.0, ""Ta"": 3.0, ""O"": 14.0, ""H"": 1.0}",875.78,#FFFFFF,hexagonal,"{""system"": ""hexagonal"", ""scale"": [1.0, 1.0, 1.6], ""optical"": {""transparent"": 1, ""refraction"": 1.5, ""birefringence"": 0.01}}"
Sincosite,Ca(VO)2(PO4)2·4H2O,"{""Ca"": 1.0, ""V"": 2.0, ""O"": 14.0, ""P"": 2.0, ""H"": 8.0}",435.96,#FFFFFF,triclinic,"{""system"": ""triclinic"", ""scale"": [0.7, 1.0, 1.3], ""optical"": {""transparent"": 1, ""refraction"": 1.5, ""birefringence"": 0.01}}"
Sinhalite,MgAl(BO4),"{""Mg"": 1.0, ""Al"": 1.0, ""B"": 1.0, ""O"": 4.0}",126.1,#FFFFFF,orthorhombic,"{""system"": ""orthorhombic"", ""scale"": [0.8, 1.0, 1.2], ""optical"": {""transparent"": 1, ""refraction"": 1.5, ""birefringence"": 0.01}}"
Sinjarite,CaCl2·2H2O,"{""Ca"": 1.0, ""Cl"": 2.0, ""H"": 4.0, ""O"": 2.0}",147.01,#FFFFFF,orthorhombic,"{""system"": ""orthorhombic"", ""scale"": [0.8, 1.0, 1.2], ""optical"": {""transparent"": 1, ""refraction"": 1.5, ""birefringence"": 0.01}}"
Sinnerite,Cu6As4S9,"{""Cu"": 6.0, ""As"": 4.0, ""S"": 9.0}",969.52,#FFD700,triclinic,"{""system"": ""triclinic"", ""scale"": [0.7, 1.0, 1.3], ""optical"": {""transparent"": 0, ""refraction"": 0.0, ""birefringence"": 0.0}}"
Sinoite,Si2N2O,"{""Si"": 2.0, ""N"": 2.0, ""O"": 1.0}",100.2,#FFFFFF,orthorhombic,"{""system"": ""orthorhombic"", ""scale"": [0.8, 1.0, 1.2], ""optical"": {""transparent"": 1, ""refraction"": 1.5, ""birefringence"": 0.01}}"
Sitinakite,KNa2Ti4Si2O13(OH)·4H2O,"{""K"": 1.0, ""Na"": 2.0, ""Ti"": 4.0, ""Si"": 2.0, ""O"": 18.0, ""H"": 9.0}",629.81,#FFFFFF,tetragonal,"{""system"": ""tetragonal"", ""scale"": [1.0, 1.0, 1.4], ""optical"": {""transparent"": 1, ""refraction"": 1.5, ""birefringence"": 0.01}}"
Siwaqaite,Ca6Al2(CrO4)3(OH)12·26H2O,"{""Ca"": 6.0, ""Al"": 2.0, ""Cr"": 3.0, ""O"": 50.0, ""H"": 64.0}",1314.95,#FFFFFF,hexagonal,"{""system"": ""hexagonal"", ""scale"": [1.0, 1.0, 1.6], ""optical"": {""transparent"": 1, ""refraction"": 1.5, ""birefringence"": 0.01}}"
Skachaite,CaCo(CO3)2,"{""Ca"": 1.0, ""Co"": 1.0, ""C"": 2.0, ""O"": 6.0}",219.03,#FFFFFF,hexagonal,"{""system"": ""hexagonal"", ""scale"": [1.0, 1.0, 1.6], ""optical"": {""transparent"": 1, ""refraction"": 1.5, ""birefringence"": 0.01}}"
Skaergaardite,PdCu,"{""Pd"": 1.0, ""Cu"": 1.0}",169.97,#00BFFF,cubic,"{""system"": ""cubic"", ""scale"": [1.0, 1.0, 1.0], ""optical"": {""transparent"": 0, ""refraction"": 0.0, ""birefringence"": 0.0}}"
Skinnerite,Cu3SbS3,"{""Cu"": 3.0, ""Sb"": 1.0, ""S"": 3.0}",408.59,#A9A9A9,monoclinic,"{""system"": ""monoclinic"", ""scale"": [0.7, 1.0, 1.3], ""optical"": {""transparent"": 0, ""refraction"": 0.0, ""birefringence"": 0.0}}"
Skippenite,Bi2Se2Te,"{""Bi"": 2.0, ""Se"": 2.0, ""Te"": 1.0}",703.48,#D2B48C,hexagonal,"{""system"": ""hexagonal"", ""scale"": [1.0, 1.0, 1.6], ""optical"": {""transparent"": 0, ""refraction"": 0.0, ""birefringence"": 0.0}}"
Sklodowskite,Mg(UO2)2(SiO3OH)2·6H2O,"{""Mg"": 1.0, ""U"": 2.0, ""O"": 18.0, ""Si"": 2.0, ""H"": 14.0}",858.66,#FFFFFF,monoclinic,"{""system"": ""monoclinic"", ""scale"": [0.7, 1.0, 1.3], ""optical"": {""transparent"": 1, ""refraction"": 1.5, ""birefringence"": 0.01}}"
Skutterudite,CoAs3,"{""Co"": 1.0, ""As"": 3.0}",283.69,#4169E1,cubic,"{""system"": ""cubic"", ""scale"": [1.0, 1.0, 1.0], ""optical"": {""transparent"": 0, ""refraction"": 0.0, ""birefringence"": 0.0}}"
Slavikite,(H3O)3Mg6Fe15(SO4)21(OH)18·98H2O,"{""H"": 223.0, ""O"": 203.0, ""Mg"": 6.0, ""Fe"": 15.0, ""S"": 21.0}",5129.65,#556B2F,hexagonal,"{""system"": ""hexagonal"", ""scale"": [1.0, 1.0, 1.6], ""optical"": {""transparent"": 0, ""refraction"": 0.0, ""birefringence"": 0.0}}"
Slavkovite,Cu13(AsO4)6(AsO3OH)4·23H2O,"{""Cu"": 13.0, ""As"": 10.0, ""O"": 63.0, ""H"": 50.0}",2633.75,#FFFFFF,triclinic,"{""system"": ""triclinic"", ""scale"": [0.7, 1.0, 1.3], ""optical"": {""transparent"": 1, ""refraction"": 1.5, ""birefringence"": 0.01}}"
Slawsonite,Sr(Al2Si2O8),"{""Sr"": 1.0, ""Al"": 2.0, ""Si"": 2.0, ""O"": 8.0}",325.76,#FFFFFF,triclinic,"{""system"": ""triclinic"", ""scale"": [0.7, 1.0, 1.3], ""optical"": {""transparent"": 1, ""refraction"": 1.5, ""birefringence"": 0.01}}"
Slottaite,SrFe3+3(PO4)(SO4)(OH)6,"{""Sr"": 1.0, ""Fe"": 3.0, ""P"": 1.0, ""O"": 14.0, ""S"": 1.0, ""H"": 6.0}",548.25,#556B2F,hexagonal,"{""system"": ""hexagonal"", ""scale"": [1.0, 1.0, 1.6], ""optical"": {""transparent"": 0, ""refraction"": 0.0, ""birefringence"": 0.0}}"
Slyudyankaite,Na28Ca4(Si24Al24O96)(SO4)6(S6)1/3(CO2)·2H2O,"{""Na"": 28.0, ""Ca"": 4.0, ""Si"": 24.0, ""Al"": 24.0, ""O"": 124.0, ""S"": 12.0, ""C"": 1.0, ""H"": 4.0}",4510.48,#FFFFFF,triclinic,"{""system"": ""triclinic"", ""scale"": [0.7, 1.0, 1.3], ""optical"": {""transparent"": 1, ""refraction"": 1.5, ""birefringence"": 0.01}}"
Smamite,Ca2Sb(OH)4[H(AsO4)2]·6H2O,"{""Ca"": 2.0, ""Sb"": 1.0, ""O"": 18.0, ""H"": 17.0, ""As"": 2.0}",656.9,#FFFFFF,triclinic,"{""system"": ""triclinic"", ""scale"": [0.7, 1.0, 1.3], ""optical"": {""transparent"": 1, ""refraction"": 1.5, ""birefringence"": 0.01}}"
Smirnite,Bi3+2Te4+O5,"{""Bi"": 2.0, ""Te"": 1.0, ""O"": 5.0}",625.56,#D2B48C,orthorhombic,"{""system"": ""orthorhombic"", ""scale"": [0.8, 1.0, 1.2], ""optical"": {""transparent"": 0, ""refraction"": 0.0, ""birefringence"": 0.0}}"
Smithite,AgAsS2,"{""Ag"": 1.0, ""As"": 1.0, ""S"": 2.0}",246.91,#FFD700,monoclinic,"{""system"": ""monoclinic"", ""scale"": [0.7, 1.0, 1.3], ""optical"": {""transparent"": 0, ""refraction"": 0.0, ""birefringence"": 0.0}}"
Smolyaninovite,Co3Fe3+2(AsO4)4·11H2O,"{""Co"": 3.0, ""Fe"": 2.0, ""As"": 4.0, ""O"": 27.0, ""H"": 22.0}",1042.35,#556B2F,orthorhombic,"{""system"": ""orthorhombic"", ""scale"": [0.8, 1.0, 1.2], ""optical"": {""transparent"": 0, ""refraction"": 0.0, ""birefringence"": 0.0}}"
Smrkovecite,Bi2O(OH)(PO4),"{""Bi"": 2.0, ""O"": 6.0, ""H"": 1.0, ""P"": 1.0}",545.94,#FFFFFF,monoclinic,"{""system"": ""monoclinic"", ""scale"": [0.7, 1.0, 1.3], ""optical"": {""transparent"": 1, ""refraction"": 1.5, ""birefringence"": 0.01}}"
Sobolevskite,PdBi,"{""Pd"": 1.0, ""Bi"": 1.0}",315.4,#D2B48C,hexagonal,"{""system"": ""hexagonal"", ""scale"": [1.0, 1.0, 1.6], ""optical"": {""transparent"": 0, ""refraction"": 0.0, ""birefringence"": 0.0}}"
Sodalite,Na4(Si3Al3)O12Cl,"{""Na"": 4.0, ""Si"": 3.0, ""Al"": 3.0, ""O"": 12.0, ""Cl"": 1.0}",484.62,#FFFFFF,cubic,"{""system"": ""cubic"", ""scale"": [1.0, 1.0, 1.0], ""optical"": {""transparent"": 1, ""refraction"": 1.5, ""birefringence"": 0.0}}"
Soddyite,(UO2)2(SiO4)(H2O)2,"{""U"": 2.0, ""O"": 10.0, ""Si"": 1.0, ""H"": 4.0}",668.18,#FFFFFF,orthorhombic,"{""system"": ""orthorhombic"", ""scale"": [0.8, 1.0, 1.2], ""optical"": {""transparent"": 1, ""refraction"": 1.5, ""birefringence"": 0.01}}"
Sogdianite,KZr2Li3Si12O30,"{""K"": 1.0, ""Zr"": 2.0, ""Li"": 3.0, ""Si"": 12.0, ""O"": 30.0}",1059.44,#FFFFFF,hexagonal,"{""system"": ""hexagonal"", ""scale"": [1.0, 1.0, 1.6], ""optical"": {""transparent"": 1, ""refraction"": 1.5, ""birefringence"": 0.01}}"
Sohngeite,Ga(OH)3,"{""Ga"": 1.0, ""O"": 3.0, ""H"": 3.0}",120.74,#FFFFFF,orthorhombic,"{""system"": ""orthorhombic"", ""scale"": [0.8, 1.0, 1.2], ""optical"": {""transparent"": 1, ""refraction"": 1.5, ""birefringence"": 0.01}}"
Sokolovaite,CsLi2AlSi4O10F2,"{""Cs"": 1.0, ""Li"": 2.0, ""Al"": 1.0, ""Si"": 4.0, ""O"": 10.0, ""F"": 2.0}",484.13,#FFFFFF,monoclinic,"{""system"": ""monoclinic"", ""scale"": [0.7, 1.0, 1.3], ""optical"": {""transparent"": 1, ""refraction"": 1.5, ""birefringence"": 0.01}}"
Solongoite,Ca2B3O4(OH)4Cl,"{""Ca"": 2.0, ""B"": 3.0, ""O"": 8.0, ""H"": 4.0, ""Cl"": 1.0}",280.07,#FFFFFF,monoclinic,"{""system"": ""monoclinic"", ""scale"": [0.7, 1.0, 1.3], ""optical"": {""transparent"": 1, ""refraction"": 1.5, ""birefringence"": 0.01}}"
Somersetite,Pb8O(OH)4(CO3)5,"{""Pb"": 8.0, ""O"": 20.0, ""H"": 4.0, ""C"": 5.0}",2041.68,#FFFFFF,hexagonal,"{""system"": ""hexagonal"", ""scale"": [1.0, 1.0, 1.6], ""optical"": {""transparent"": 1, ""refraction"": 1.5, ""birefringence"": 0.01}}"
Sonoraite,Fe3+(Te4+O3)(OH)·H2O,"{""Fe"": 1.0, ""Te"": 1.0, ""O"": 5.0, ""H"": 3.0}",266.47,#556B2F,monoclinic,"{""system"": ""monoclinic"", ""scale"": [0.7, 1.0, 1.3], ""optical"": {""transparent"": 0, ""refraction"": 0.0, ""birefringence"": 0.0}}"
Sopcheite,Ag4Pd3Te4,"{""Ag"": 4.0, ""Pd"": 3.0, ""Te"": 4.0}",1261.14,#C0C0C0,orthorhombic,"{""system"": ""orthorhombic"", ""scale"": [0.8, 1.0, 1.2], ""optical"": {""transparent"": 0, ""refraction"": 0.0, ""birefringence"": 0.0}}"
Sosedkoite,K5Al2Ta22O60,"{""K"": 5.0, ""Al"": 2.0, ""Ta"": 22.0, ""O"": 60.0}",5190.36,#FFFFFF,orthorhombic,"{""system"": ""orthorhombic"", ""scale"": [0.8, 1.0, 1.2], ""optical"": {""transparent"": 1, ""refraction"": 1.5, ""birefringence"": 0.01}}"
Souzalite,Mg3Al4(PO4)4(OH)6·2H2O,"{""Mg"": 3.0, ""Al"": 4.0, ""P"": 4.0, ""O"": 24.0, ""H"": 10.0}",698.81,#FFFFFF,triclinic,"{""system"": ""triclinic"", ""scale"": [0.7, 1.0, 1.3], ""optical"": {""transparent"": 1, ""refraction"": 1.5, ""birefringence"": 0.01}}"
Spadaite,MgSiO2(OH)2·H2O (?),"{""Mg"": 1.0, ""Si"": 1.0, ""O"": 5.0, ""H"": 4.0}",136.43,#FFFFFF,,"{""system"": """", ""scale"": [1.0, 1.0, 1.0], ""optical"": {""transparent"": 1, ""refraction"": 1.5, ""birefringence"": 0.01}}"
Spaltiite,Tl2Cu2As2S5,"{""Tl"": 2.0, ""Cu"": 2.0, ""As"": 2.0, ""S"": 5.0}",846.0,#FFD700,monoclinic,"{""system"": ""monoclinic"", ""scale"": [0.7, 1.0, 1.3], ""optical"": {""transparent"": 0, ""refraction"": 0.0, ""birefringence"": 0.0}}"
Spangolite,Cu6Al(SO4)(OH)12Cl·3H2O,"{""Cu"": 6.0, ""Al"": 1.0, ""S"": 1.0, ""O"": 19.0, ""H"": 18.0, ""Cl"": 1.0}",797.93,#FFFFFF,hexagonal,"{""system"": ""hexagonal"", ""scale"": [1.0, 1.0, 1.6], ""optical"": {""transparent"": 1, ""refraction"": 1.5, ""birefringence"": 0.01}}"
Sperrylite,PtAs2,"{""Pt"": 1.0, ""As"": 2.0}",344.92,#808080,cubic,"{""system"": ""cubic"", ""scale"": [1.0, 1.0, 1.0], ""optical"": {""transparent"": 0, ""refraction"": 0.0, ""birefringence"": 0.0}}"
Spertiniite,Cu(OH)2,"{""Cu"": 1.0, ""O"": 2.0, ""H"": 2.0}",97.57,#00BFFF,orthorhombic,"{""system"": ""orthorhombic"", ""scale"": [0.8, 1.0, 1.2], ""optical"": {""transparent"": 0, ""refraction"": 0.0, ""birefringence"": 0.0}}"
Sphaerobertrandite,Be3(SiO4)(OH)2,"{""Be"": 3.0, ""Si"": 1.0, ""O"": 6.0, ""H"": 2.0}",153.14,#FFFFFF,monoclinic,"{""system"": ""monoclinic"", ""scale"": [0.7, 1.0, 1.3], ""optical"": {""transparent"": 1, ""refraction"": 1.5, ""birefringence"": 0.01}}"
Sphaerobismoite,Bi2O3,"{""Bi"": 2.0, ""O"": 3.0}",465.96,#D2B48C,tetragonal,"{""system"": ""tetragonal"", ""scale"": [1.0, 1.0, 1.4], ""optical"": {""transparent"": 0, ""refraction"": 0.0, ""birefringence"": 0.0}}"
Spheniscidite,(NH4)Fe3+2(PO4)2(OH)·2H2O,"{""N"": 1.0, ""H"": 9.0, ""Fe"": 2.0, ""P"": 2.0, ""O"": 11.0}",372.72,#556B2F,monoclinic,"{""system"": ""monoclinic"", ""scale"": [0.7, 1.0, 1.3], ""optical"": {""transparent"": 0, ""refraction"": 0.0, ""birefringence"": 0.0}}"
Spherocobaltite,Co(CO3),"{""Co"": 1.0, ""C"": 1.0, ""O"": 3.0}",118.94,#4169E1,hexagonal,"{""system"": ""hexagonal"", ""scale"": [1.0, 1.0, 1.6], ""optical"": {""transparent"": 0, ""refraction"": 0.0, ""birefringence"": 0.0}}"
Spinel,MgAl2O4,"{""Mg"": 1.0, ""Al"": 2.0, ""O"": 4.0}",142.27,#FFFFFF,cubic,"{""system"": ""cubic"", ""scale"": [1.0, 1.0, 1.0], ""optical"": {""transparent"": 1, ""refraction"": 1.5, ""birefringence"": 0.0}}"
Spionkopite,Cu39S28,"{""Cu"": 39.0, ""S"": 28.0}",3376.13,#A9A9A9,,"{""system"": """", ""scale"": [1.0, 1.0, 1.0], ""optical"": {""transparent"": 0, ""refraction"": 0.0, ""birefringence"": 0.0}}"
Spodumene,LiAlSi2O6,"{""Li"": 1.0, ""Al"": 1.0, ""Si"": 2.0, ""O"": 6.0}",186.1,#FFFFFF,monoclinic,"{""system"": ""monoclinic"", ""scale"": [0.7, 1.0, 1.3], ""optical"": {""transparent"": 1, ""refraction"": 1.5, ""birefringence"": 0.01}}"
Spriggite,Pb3(UO2)6O8(OH)2·3H2O,"{""Pb"": 3.0, ""U"": 6.0, ""O"": 25.0, ""H"": 8.0}",2457.84,#FFFFFF,monoclinic,"{""system"": ""monoclinic"", ""scale"": [0.7, 1.0, 1.3], ""optical"": {""transparent"": 1, ""refraction"": 1.5, ""birefringence"": 0.01}}"
Springcreekite,BaV3+3(PO4)(PO3OH)(OH)6,"{""Ba"": 1.0, ""V"": 3.0, ""P"": 2.0, ""O"": 14.0, ""H"": 7.0}",583.15,#FFFFFF,hexagonal,"{""system"": ""hexagonal"", ""scale"": [1.0, 1.0, 1.6], ""optical"": {""transparent"": 1, ""refraction"": 1.5, ""birefringence"": 0.01}}"
Spurrite,Ca5(SiO4)2(CO3),"{""Ca"": 5.0, ""Si"": 2.0, ""O"": 11.0, ""C"": 1.0}",444.59,#FFFFFF,monoclinic,"{""system"": ""monoclinic"", ""scale"": [0.7, 1.0, 1.3], ""optical"": {""transparent"": 1, ""refraction"": 1.5, ""birefringence"": 0.01}}"
Srebrodolskite,Ca2Fe3+2O5,"{""Ca"": 2.0, ""Fe"": 2.0, ""O"": 5.0}",271.86,#8B4513,orthorhombic,"{""system"": ""orthorhombic"", ""scale"": [0.8, 1.0, 1.2], ""optical"": {""transparent"": 0, ""refraction"": 0.0, ""birefringence"": 0.0}}"
Sreinite,Pb(UO2)4(BiO)3(PO4)2(OH)7·4H2O,"{""Pb"": 1.0, ""U"": 4.0, ""O"": 30.0, ""Bi"": 3.0, ""P"": 2.0, ""H"": 15.0}",2343.32,#FFFFFF,cubic,"{""system"": ""cubic"", ""scale"": [1.0, 1.0, 1.0], ""optical"": {""transparent"": 1, ""refraction"": 1.5, ""birefringence"": 0.0}}"
Srilankite,TiO2,"{""Ti"": 1.0, ""O"": 2.0}",79.87,#FFFFFF,orthorhombic,"{""system"": ""orthorhombic"", ""scale"": [0.8, 1.0, 1.2], ""optical"": {""transparent"": 1, ""refraction"": 1.5, ""birefringence"": 0.01}}"
Stanevansite,Mg(C2H3O3)2·2H2O,"{""Mg"": 1.0, ""C"": 4.0, ""H"": 10.0, ""O"": 8.0}",210.43,#FFFFFF,monoclinic,"{""system"": ""monoclinic"", ""scale"": [0.7, 1.0, 1.3], ""optical"": {""transparent"": 1, ""refraction"": 1.5, ""birefringence"": 0.01}}"
Stanfieldite,Ca4Mg5(PO4)6,"{""Ca"": 4.0, ""Mg"": 5.0, ""P"": 6.0, ""O"": 24.0}",851.69,#FFFFFF,monoclinic,"{""system"": ""monoclinic"", ""scale"": [0.7, 1.0, 1.3], ""optical"": {""transparent"": 1, ""refraction"": 1.5, ""birefringence"": 0.01}}"
Stanleyite,V4+O(SO4)·6H2O,"{""V"": 1.0, ""O"": 11.0, ""S"": 1.0, ""H"": 12.0}",271.1,#FFFFFF,orthorhombic,"{""system"": ""orthorhombic"", ""scale"": [0.8, 1.0, 1.2], ""optical"": {""transparent"": 1, ""refraction"": 1.5, ""birefringence"": 0.01}}"
Starkeyite,Mg(SO4)·4H2O,"{""Mg"": 1.0, ""S"": 1.0, ""O"": 8.0, ""H"": 8.0}",192.43,#FFFFFF,monoclinic,"{""system"": ""monoclinic"", ""scale"": [0.7, 1.0, 1.3], ""optical"": {""transparent"": 1, ""refraction"": 1.5, ""birefringence"": 0.01}}"
Starovaite,KCu5O(VO4)3,"{""K"": 1.0, ""Cu"": 5.0, ""O"": 13.0, ""V"": 3.0}",717.67,#FFFFFF,triclinic,"{""system"": ""triclinic"", ""scale"": [0.7, 1.0, 1.3], ""optical"": {""transparent"": 1, ""refraction"": 1.5, ""birefringence"": 0.01}}"
Staurolite,Fe2+2Al9Si4O23(OH),"{""Fe"": 2.0, ""Al"": 9.0, ""Si"": 4.0, ""O"": 24.0, ""H"": 1.0}",851.89,#556B2F,orthorhombic,"{""system"": ""orthorhombic"", ""scale"": [0.8, 1.0, 1.2], ""optical"": {""transparent"": 0, ""refraction"": 0.0, ""birefringence"": 0.0}}"
Steigerite,Al(VO4)·3H2O,"{""Al"": 1.0, ""V"": 1.0, ""O"": 7.0, ""H"": 6.0}",195.97,#FFFFFF,,"{""system"": """", ""scale"": [1.0, 1.0, 1.0], ""optical"": {""transparent"": 1, ""refraction"": 1.5, ""birefringence"": 0.01}}"
Steinhardtite,Al,"{""Al"": 1.0}",26.98,#FFFFFF,cubic,"{""system"": ""cubic"", ""scale"": [1.0, 1.0, 1.0], ""optical"": {""transparent"": 1, ""refraction"": 1.5, ""birefringence"": 0.0}}"
Steiningerite,Ba2Zr2(Si4O12)O2,"{""Ba"": 2.0, ""Zr"": 2.0, ""Si"": 4.0, ""O"": 14.0}",793.46,#FFFFFF,tetragonal,"{""system"": ""tetragonal"", ""scale"": [1.0, 1.0, 1.4], ""optical"": {""transparent"": 1, ""refraction"": 1.5, ""birefringence"": 0.01}}"
Steklite,KAl(SO4)2,"{""K"": 1.0, ""Al"": 1.0, ""S"": 2.0, ""O"": 8.0}",258.2,#FFFFFF,hexagonal,"{""system"": ""hexagonal"", ""scale"": [1.0, 1.0, 1.6], ""optical"": {""transparent"": 1, ""refraction"": 1.5, ""birefringence"": 0.01}}"
Stellerite,Ca4(Si28Al8)O72·28H2O,"{""Ca"": 4.0, ""Si"": 28.0, ""Al"": 8.0, ""O"": 100.0, ""H"": 56.0}",2819.13,#FFFFFF,monoclinic,"{""system"": ""monoclinic"", ""scale"": [0.7, 1.0, 1.3], ""optical"": {""transparent"": 1, ""refraction"": 1.5, ""birefringence"": 0.01}}"
Stenhuggarite,CaFe3+Sb3+As3+2O7,"{""Ca"": 1.0, ""Fe"": 1.0, ""Sb"": 1.0, ""As"": 2.0, ""O"": 7.0}",479.53,#556B2F,tetragonal,"{""system"": ""tetragonal"", ""scale"": [1.0, 1.0, 1.4], ""optical"": {""transparent"": 0, ""refraction"": 0.0, ""birefringence"": 0.0}}"
Stenonite,Sr2Al(CO3)F5,"{""Sr"": 2.0, ""Al"": 1.0, ""C"": 1.0, ""O"": 3.0, ""F"": 5.0}",357.23,#FFFFFF,monoclinic,"{""system"": ""monoclinic"", ""scale"": [0.7, 1.0, 1.3], ""optical"": {""transparent"": 1, ""refraction"": 1.5, ""birefringence"": 0.01}}"
Stepanovite,NaMgFe3+(C2O4)3·9H2O,"{""Na"": 1.0, ""Mg"": 1.0, ""Fe"": 1.0, ""C"": 6.0, ""O"": 21.0, ""H"": 18.0}",529.35,#556B2F,hexagonal,"{""system"": ""hexagonal"", ""scale"": [1.0, 1.0, 1.6], ""optical"": {""transparent"": 0, ""refraction"": 0.0, ""birefringence"": 0.0}}"
Stephanite,Ag5SbS4,"{""Ag"": 5.0, ""Sb"": 1.0, ""S"": 4.0}",789.35,#A9A9A9,orthorhombic,"{""system"": ""orthorhombic"", ""scale"": [0.8, 1.0, 1.2], ""optical"": {""transparent"": 0, ""refraction"": 0.0, ""birefringence"": 0.0}}"
Stepite,U(AsO3OH)2·4H2O,"{""U"": 1.0, ""As"": 2.0, ""O"": 12.0, ""H"": 10.0}",589.95,#FFFFFF,tetragonal,"{""system"": ""tetragonal"", ""scale"": [1.0, 1.0, 1.4], ""optical"": {""transparent"": 1, ""refraction"": 1.5, ""birefringence"": 0.01}}"
Stercorite,(NH4)Na(PO3OH)·4H2O,"{""N"": 1.0, ""H"": 13.0, ""Na"": 1.0, ""P"": 1.0, ""O"": 8.0}",209.07,#FFFFFF,triclinic,"{""system"": ""triclinic"", ""scale"": [0.7, 1.0, 1.3], ""optical"": {""transparent"": 1, ""refraction"": 1.5, ""birefringence"": 0.01}}"
Sternbergite,AgFe2S3,"{""Ag"": 1.0, ""Fe"": 2.0, ""S"": 3.0}",315.75,#DAA520,orthorhombic,"{""system"": ""orthorhombic"", ""scale"": [0.8, 1.0, 1.2], ""optical"": {""transparent"": 0, ""refraction"": 0.0, ""birefringence"": 0.0}}"
Steropesite,Tl3BiCl6,"{""Tl"": 3.0, ""Bi"": 1.0, ""Cl"": 6.0}",1034.82,#D2B48C,monoclinic,"{""system"": ""monoclinic"", ""scale"": [0.7, 1.0, 1.3], ""optical"": {""transparent"": 0, ""refraction"": 0.0, ""birefringence"": 0.0}}"
Stetindite-(Ce),Ce(SiO4),"{""Ce"": 1.0, ""Si"": 1.0, ""O"": 4.0}",232.21,#FFFFFF,tetragonal,"{""system"": ""tetragonal"", ""scale"": [1.0, 1.0, 1.4], ""optical"": {""transparent"": 1, ""refraction"": 1.5, ""birefringence"": 0.01}}"
Steverustite,Pb2+5(OH)5[Cu1+(S6+O3S2-)3](H2O)2,"{""Pb"": 5.0, ""O"": 16.0, ""H"": 9.0, ""Cu"": 1.0, ""S"": 6.0}",1556.98,#FFFFFF,monoclinic,"{""system"": ""monoclinic"", ""scale"": [0.7, 1.0, 1.3], ""optical"": {""transparent"": 1, ""refraction"": 1.5, ""birefringence"": 0.01}}"