name,formula,elements,density,color,crystal,pm_ids,gacha_weight
Guildite,CuFe3+(SO4)2(OH)·4H2O,"{""Cu"": 1.0, ""Fe"": 1.0, ""S"": 2.0, ""O"": 13.0, ""H"": 9.0}",400.57,#556B2F,monoclinic,"{47,55}",2262.0
Guilleminite,Ba(UO2)3(Se4+O3)2O2·3H2O,"{""Ba"": 1.0, ""U"": 3.0, ""O"": 17.0, ""Se"": 2.0, ""H"": 6.0}",1287.393,#FFFFFF,orthorhombic,{47},1998.0
Guite,Co2+Co3+2O4,"{""Co"": 3.0, ""O"": 4.0}",240.795,#4169E1,cubic,{47},1998.0
Guixiangite,NiBiS,"{""Ni"": 1.0, ""Bi"": 1.0, ""S"": 1.0}",299.733,#A9A9A9,cubic,{},1.0
Gungerite,TlAs5Sb4S13,"{""Tl"": 1.0, ""As"": 5.0, ""Sb"": 4.0, ""S"": 13.0}",1482.81,#FFD700,orthorhombic,{33},797.0
Gunmaite,(Na2Sr)Sr2Al10(PO4)4F14(OH)12,"{""Na"": 2.0, ""Sr"": 3.0, ""Al"": 10.0, ""P"": 4.0, ""O"": 28.0, ""F"": 14.0, ""H"": 12.0}",1428.596,#FFFFFF,hexagonal,{},1.0
Gunterite,Na4Ca[V10O28]·20H2O,"{""Na"": 4.0, ""Ca"": 1.0, ""V"": 10.0, ""O"": 48.0, ""H"": 40.0}",1449.73,#FFFFFF,monoclinic,"{47,55}",2262.0
Gupeiite,Fe3Si,"{""Fe"": 3.0, ""Si"": 1.0}",195.62,#8B4513,cubic,"{7,26}",373.0
Gurimite,Ba3(VO4)2,"{""Ba"": 3.0, ""V"": 2.0, ""O"": 8.0}",641.866,#FFFFFF,hexagonal,{51},128.0
Gurzhiite,Al(UO2)(SO4)2F·10H2O,"{""Al"": 1.0, ""U"": 1.0, ""O"": 20.0, ""S"": 2.0, ""F"": 1.0, ""H"": 20.0}",688.27,#FFFFFF,triclinic,{47},1998.0
Gustavite,AgPbBi3S6,"{""Ag"": 1.0, ""Pb"": 1.0, ""Bi"": 3.0, ""S"": 6.0}",1134.37,#708090,orthorhombic,{12},129.0
Guyanaite,CrO(OH),"{""Cr"": 1.0, ""O"": 2.0, ""H"": 1.0}",85.002,#228B22,orthorhombic,"{31,40,47}",2673.0
Gwihabaite,(NH4)(NO3),"{""N"": 2.0, ""H"": 4.0, ""O"": 3.0}",80.043,#FFFFFF,orthorhombic,"{49,50,52,54}",656.0
Gypsum,Ca(SO4)·2H2O,"{""Ca"": 1.0, ""S"": 1.0, ""O"": 6.0, ""H"": 4.0}",172.164,#FFFFFF,monoclinic,"{6,21,25,45,47,48,49,50,54,55}",3835.0
Gyrolite,NaCa16(Si23Al)O60(OH)8·14H2O,"{""Na"": 1.0, ""Ca"": 16.0, ""Si"": 23.0, ""Al"": 1.0, ""O"": 82.0, ""H"": 36.0}",2685.381,#FFFFFF,triclinic,"{10,16,50,54}",697.0
Gysinite-(Ce),PbCe(CO3)2(OH)(H2O),"{""Pb"": 1.0, ""Ce"": 1.0, ""C"": 2.0, ""O"": 8.0, ""H"": 3.0}",502.358,#FFFFFF,orthorhombic,{},1.0
Gysinite-(La),PbLa(CO3)2(OH)·H2O,"{""Pb"": 1.0, ""La"": 1.0, ""C"": 2.0, ""O"": 8.0, ""H"": 3.0}",501.148,#FFFFFF,orthorhombic,{47},1998.0
Gysinite-(Nd),PbNd(CO3)2(OH)·H2O,"{""Pb"": 1.0, ""Nd"": 1.0, ""C"": 2.0, ""O"": 8.0, ""H"": 3.0}",506.478,#FFFFFF,orthorhombic,{47},1998.0
Hafnon,Hf(SiO4),"{""Hf"": 1.0, ""Si"": 1.0, ""O"": 4.0}",270.571,#FFFFFF,tetragonal,{34},564.0
Haggertyite,BaFe2+4Fe3+2Ti5MgO19,"{""Ba"": 1.0, ""Fe"": 6.0, ""Ti"": 5.0, ""Mg"": 1.0, ""O"": 19.0}",1040.021,#556B2F,hexagonal,{36},291.0
Haggite,V3+V4+O2(OH)3,"{""V"": 2.0, ""O"": 5.0, ""H"": 3.0}",184.903,#FFFFFF,monoclinic,{47},1998.0
Hagstromite,Pb8Cu2+(Te6+O6)2(CO3)Cl4,"{""Pb"": 8.0, ""Cu"": 1.0, ""Te"": 2.0, ""O"": 15.0, ""C"": 1.0, ""Cl"": 4.0}",2370.142,#FFFFFF,orthorhombic,{47},1998.0
Haidingerite,Ca(AsO3OH)·H2O,"{""Ca"": 1.0, ""As"": 1.0, ""O"": 5.0, ""H"": 3.0}",198.019,#FFFFFF,orthorhombic,{47},1998.0
Haigerachite,KFe3+3(H2PO4)6(HPO4)2·4H2O,"{""K"": 1.0, ""Fe"": 3.0, ""H"": 22.0, ""P"": 8.0, ""O"": 36.0}",1052.565,#556B2F,monoclinic,{47},1998.0
Hainite-(Y),Ca2(CaY)Na(NaCa)Ti(Si2O7)2(OF)F2,"{""Ca"": 4.0, ""Y"": 1.0, ""Na"": 2.0, ""Ti"": 1.0, ""Si"": 4.0, ""O"": 15.0, ""F"": 3.0}",752.384,#FFFFFF,triclinic,{35},726.0
Haitaite-(La),LaU4+Fe3+2(Ti13Fe2+4Fe3+)O38,"{""La"": 1.0, ""U"": 1.0, ""Fe"": 7.0, ""Ti"": 13.0, ""O"": 38.0}",1998.088,#556B2F,hexagonal,{36},291.0
Haiweeite,Ca(UO2)2(Si5O12)(OH)2·6H2O,"{""Ca"": 1.0, ""U"": 2.0, ""O"": 24.0, ""Si"": 5.0, ""H"": 14.0}",1054.651,#FFFFFF,orthorhombic,"{22,25}",457.0
Hakite-(Cd),Cu6(Cu4Cd2)Sb4Se13,"{""Cu"": 10.0, ""Cd"": 2.0, ""Sb"": 4.0, ""Se"": 13.0}",2373.943,#FFFFFF,cubic,{},1.0
Hakite-(Fe),Cu6(Cu4Fe2)Sb4Se13,"{""Cu"": 10.0, ""Fe"": 2.0, ""Sb"": 4.0, ""Se"": 13.0}",2260.813,#556B2F,cubic,{},1.0
Hakite-(Hg),Cu6(Cu4Hg2)Sb4Se13,"{""Cu"": 10.0, ""Hg"": 2.0, ""Sb"": 4.0, ""Se"": 13.0}",2550.303,#FFFFFF,cubic,{33},797.0
Halamishite,Ni5P4,"{""Ni"": 5.0, ""P"": 4.0}",417.361,#7FFF00,hexagonal,{51},128.0
Haleniusite-(Ce),CeOF,"{""Ce"": 1.0, ""O"": 1.0, ""F"": 1.0}",175.117,#FFFFFF,cubic,{23},398.0
Haleniusite-(La),LaOF,"{""La"": 1.0, ""O"": 1.0, ""F"": 1.0}",173.907,#FFFFFF,cubic,{23},398.0
Halite,NaCl,"{""Na"": 1.0, ""Cl"": 1.0}",58.44,#FFFFFF,cubic,"{6,21,25,45,50,54,55,57}",1738.0
Halloysite,Al2Si2O5(OH)4,"{""Al"": 2.0, ""Si"": 2.0, ""O"": 9.0, ""H"": 4.0}",258.157,#FFFFFF,monoclinic,{47},1998.0
Halotrichite,Fe2+Al2(SO4)4·22H2O,"{""Fe"": 1.0, ""Al"": 2.0, ""S"": 4.0, ""O"": 38.0, ""H"": 44.0}",890.363,#556B2F,monoclinic,"{14,45,47,50,54,55}",3254.0
Halurgite,Mg4[B8O13(OH)2]2·7H2O,"{""Mg"": 4.0, ""B"": 16.0, ""O"": 37.0, ""H"": 18.0}",880.287,#FFFFFF,unknown,{25},210.0
Hambergite,Be2(BO3)(OH),"{""Be"": 2.0, ""B"": 1.0, ""O"": 4.0, ""H"": 1.0}",93.8384,#FFFFFF,orthorhombic,{34},564.0
Hammarite,Cu2Pb2Bi4S9,"{""Cu"": 2.0, ""Pb"": 2.0, ""Bi"": 4.0, ""S"": 9.0}",1665.952,#708090,orthorhombic,{33},797.0
Hanauerite,AgHgSI,"{""Ag"": 1.0, ""Hg"": 1.0, ""S"": 1.0, ""I"": 1.0}",467.42,#A9A9A9,orthorhombic,{33},797.0
Hanawaltite,Hg1+6Hg2+O3Cl2,"{""Hg"": 7.0, ""O"": 3.0, ""Cl"": 2.0}",1523.027,#FFFFFF,orthorhombic,{47},1998.0
Hancockite,CaPb(Al2Fe3+)[Si2O7][SiO4]O(OH),"{""Ca"": 1.0, ""Pb"": 1.0, ""Al"": 2.0, ""Fe"": 1.0, ""Si"": 3.0, ""O"": 13.0, ""H"": 1.0}",650.337,#556B2F,monoclinic,{32},412.0
Hanjiangite,Ba2Ca(V3+Al)(AlSi3O10)(OH)2F(CO3)2,"{""Ba"": 2.0, ""Ca"": 1.0, ""V"": 1.0, ""Al"": 2.0, ""Si"": 3.0, ""O"": 18.0, ""H"": 2.0, ""F"": 1.0, ""C"": 2.0}",836.917,#FFFFFF,monoclinic,"{32,47}",2410.0
Hanksite,KNa22(SO4)9(CO3)2Cl,"{""K"": 1.0, ""Na"": 22.0, ""S"": 9.0, ""O"": 42.0, ""C"": 2.0, ""Cl"": 1.0}",1564.848,#FFFFFF,hexagonal,{25},210.0
Hannayite,(NH4)2Mg3(PO3OH)4·8H2O,"{""N"": 2.0, ""H"": 28.0, ""Mg"": 3.0, ""P"": 4.0, ""O"": 24.0}",637.025,#FFFFFF,triclinic,"{49,52}",149.0
Hanswilkeite,KFeS2,"{""K"": 1.0, ""Fe"": 1.0, ""S"": 2.0}",159.063,#DAA520,monoclinic,{51},128.0
Hapkeite,Fe2Si,"{""Fe"": 2.0, ""Si"": 1.0}",139.775,#8B4513,cubic,{},1.0
Haradaite,SrV4+Si2O7,"{""Sr"": 1.0, ""V"": 1.0, ""Si"": 2.0, ""O"": 7.0}",306.725,#FFFFFF,orthorhombic,{32},412.0
Harmotome,Ba2(Si12Al4)O32·12H2O,"{""Ba"": 2.0, ""Si"": 12.0, ""Al"": 4.0, ""O"": 44.0, ""H"": 24.0}",1447.756,#FFFFFF,monoclinic,"{17,22,32,35}",1436.0
Harmunite,CaFe2O4,"{""Ca"": 1.0, ""Fe"": 2.0, ""O"": 4.0}",215.764,#8B4513,orthorhombic,"{50,51,54}",635.0
Harrisonite,CaFe2+6(SiO4)2(PO4)2,"{""Ca"": 1.0, ""Fe"": 6.0, ""Si"": 2.0, ""O"": 16.0, ""P"": 2.0}",749.25,#556B2F,hexagonal,{40},319.0
Hasanovite,KNa(MoO2)(SO4)2,"{""K"": 1.0, ""Na"": 1.0, ""Mo"": 1.0, ""O"": 10.0, ""S"": 2.0}",382.148,#FFFFFF,monoclinic,{54},234.0
Hashemite,Ba(CrO4),"{""Ba"": 1.0, ""Cr"": 1.0, ""O"": 4.0}",253.322,#228B22,orthorhombic,{51},128.0
Hastingsite,NaCa2(Fe2+4Fe3+)(Si6Al2)O22(OH)2,"{""Na"": 1.0, ""Ca"": 2.0, ""Fe"": 5.0, ""Si"": 6.0, ""Al"": 2.0, ""O"": 24.0, ""H"": 2.0}",990.837,#556B2F,monoclinic,"{8,19,20,26,31,34,35,37,40}",2631.0
Hatchite,AgTlPbAs2S5,"{""Ag"": 1.0, ""Tl"": 1.0, ""Pb"": 1.0, ""As"": 2.0, ""S"": 5.0}",829.594,#708090,triclinic,{33},797.0
Hatertite,NaNaCa(Cu2+Fe3+)(AsO4)3,"{""Na"": 2.0, ""Ca"": 1.0, ""Cu"": 1.0, ""Fe"": 1.0, ""As"": 3.0, ""O"": 12.0}",622.203,#556B2F,monoclinic,{45},424.0
Hatrurite,Ca3SiO5,"{""Ca"": 3.0, ""Si"": 1.0, ""O"": 5.0}",228.314,#FFFFFF,hexagonal,{51},128.0
Hauchecornite,Ni9BiSbS8,"{""Ni"": 9.0, ""Bi"": 1.0, ""Sb"": 1.0, ""S"": 8.0}",1115.457,#A9A9A9,tetragonal,{33},797.0
Hauyne,Na3Ca(Si3Al3)O12(SO4),"{""Na"": 3.0, ""Ca"": 1.0, ""Si"": 3.0, ""Al"": 3.0, ""O"": 16.0, ""S"": 1.0}",562.293,#FFFFFF,cubic,"{9,35,45}",1277.0
Hawleyite,CdS,"{""Cd"": 1.0, ""S"": 1.0}",144.47,#A9A9A9,cubic,"{33,55}",1061.0
Hawthorneite,BaMgTi3Cr4Fe2+2Fe3+2O19,"{""Ba"": 1.0, ""Mg"": 1.0, ""Ti"": 3.0, ""Cr"": 4.0, ""Fe"": 4.0, ""O"": 19.0}",1040.581,#556B2F,hexagonal,{36},291.0
Haycockite,Cu4Fe5S8,"{""Cu"": 4.0, ""Fe"": 5.0, ""S"": 8.0}",789.889,#DAA520,orthorhombic,"{15,33,37}",964.0
Haydeeite,Cu3Mg(OH)6Cl2,"{""Cu"": 3.0, ""Mg"": 1.0, ""O"": 6.0, ""H"": 6.0, ""Cl"": 2.0}",387.885,#FFFFFF,hexagonal,{47},1998.0
Haynesite,(UO2)3(Se4+O3)2(OH)2·5H2O,"{""U"": 3.0, ""O"": 19.0, ""Se"": 2.0, ""H"": 12.0}",1188.109,#FFFFFF,orthorhombic,{47},1998.0
Hayyanite,Cu5Ag11Pb76Sb71As17(As2+)8S224,"{""Cu"": 5.0, ""Ag"": 11.0, ""Pb"": 76.0, ""Sb"": 71.0, ""As"": 25.0, ""S"": 224.0}",34950.95,#708090,monoclinic,{},1.0
Hazenite,KNaMg2(PO4)2·14H2O,"{""K"": 1.0, ""Na"": 1.0, ""Mg"": 2.0, ""P"": 2.0, ""O"": 22.0, ""H"": 28.0}",552.848,#FFFFFF,orthorhombic,{49},77.0
Heazlewoodite,Ni3S2,"{""Ni"": 3.0, ""S"": 2.0}",240.199,#A9A9A9,hexagonal,"{6,7,12,13,33,36,37,38}",1855.0
Hechtsbergite,Bi2O(VO4)(OH),"{""Bi"": 2.0, ""O"": 6.0, ""V"": 1.0, ""H"": 1.0}",565.904,#FFFFFF,monoclinic,{47},1998.0
Hectorfloresite,Na9(IO3)(SO4)4,"{""Na"": 9.0, ""I"": 1.0, ""O"": 19.0, ""S"": 4.0}",766.031,#FFFFFF,monoclinic,{25},210.0
Hedenbergite,CaFe2+Si2O6,"{""Ca"": 1.0, ""Fe"": 1.0, ""Si"": 2.0, ""O"": 6.0}",248.087,#556B2F,monoclinic,"{5,6,19,28,31,40}",1127.0
Hedleyite,Bi7Te3,"{""Bi"": 7.0, ""Te"": 3.0}",1845.66,#D2B48C,hexagonal,"{31,33}",1153.0
Hedyphane,Ca2Pb3(AsO4)3Cl,"{""Ca"": 2.0, ""Pb"": 3.0, ""As"": 3.0, ""O"": 12.0, ""Cl"": 1.0}",1153.96,#FFFFFF,hexagonal,"{32,45,47}",2834.0
Heflikite,Ca2(Al2Sc)(Si2O7)(SiO4)O(OH),"{""Ca"": 2.0, ""Al"": 2.0, ""Sc"": 1.0, ""Si"": 3.0, ""O"": 13.0, ""H"": 1.0}",472.326,#FFFFFF,monoclinic,{},1.0
Heftetjernite,ScTaO4,"{""Sc"": 1.0, ""Ta"": 1.0, ""O"": 4.0}",289.902,#FFFFFF,monoclinic,{34},564.0
Heidornite,Na2Ca3B5O8(SO4)2(OH)2Cl,"{""Na"": 2.0, ""Ca"": 3.0, ""B"": 5.0, ""O"": 18.0, ""S"": 2.0, ""H"": 2.0, ""Cl"": 1.0}",609.832,#FFFFFF,monoclinic,{25},210.0
Heimaeyite,Na3Al(SO4)3,"{""Na"": 3.0, ""Al"": 1.0, ""S"": 3.0, ""O"": 12.0}",384.12,#FFFFFF,hexagonal,{},1.0
Heimite,PbCu2(AsO4)(OH)3·2H2O,"{""Pb"": 1.0, ""Cu"": 2.0, ""As"": 1.0, ""O"": 9.0, ""H"": 7.0}",560.261,#FFFFFF,monoclinic,{47},1998.0
Heinrichite,Ba(UO2)2(AsO4)2·10H2O,"{""Ba"": 1.0, ""U"": 2.0, ""O"": 22.0, ""As"": 2.0, ""H"": 20.0}",1135.372,#FFFFFF,monoclinic,{47},1998.0
Heisenbergite,(UO2)(OH)2·H2O,"{""U"": 1.0, ""O"": 5.0, ""H"": 4.0}",322.057,#ADFF2F,orthorhombic,{47},1998.0
Heklaite,KNaSiF6,"{""K"": 1.0, ""Na"": 1.0, ""Si"": 1.0, ""F"": 6.0}",204.161,#FFFFFF,orthorhombic,{45},424.0
Hellyerite,Ni(CO3)·6H2O,"{""Ni"": 1.0, ""C"": 1.0, ""O"": 9.0, ""H"": 12.0}",226.791,#FFFFFF,unknown,{47},1998.0
Hematite,Fe2O3,"{""Fe"": 2.0, ""O"": 3.0}",159.687,#8B4513,hexagonal,"{9,10,14,15,17,21,24,25,32,40,44,45,47,48,49,53}",4170.0
Hemleyite,FeSiO3,"{""Fe"": 1.0, ""Si"": 1.0, ""O"": 3.0}",131.927,#8B4513,hexagonal,{6},205.0
Hendekasartorite,Tl2Pb48As82S172,"{""Tl"": 2.0, ""Pb"": 48.0, ""As"": 82.0, ""S"": 172.0}",22012.284,#708090,monoclinic,{33},797.0
Heneuite,CaMg5(PO4)3(CO3)(OH),"{""Ca"": 1.0, ""Mg"": 5.0, ""P"": 3.0, ""O"": 16.0, ""C"": 1.0, ""H"": 1.0}",523.528,#FFFFFF,triclinic,"{31,40}",675.0
Henmilite,Ca2Cu[B(OH)4]2(OH)4,"{""Ca"": 2.0, ""Cu"": 1.0, ""B"": 2.0, ""O"": 12.0, ""H"": 12.0}",369.406,#FFFFFF,triclinic,{23},398.0
Henrymeyerite,Ba(Ti7Fe2+)O16,"{""Ba"": 1.0, ""Ti"": 7.0, ""Fe"": 1.0, ""O"": 16.0}",784.228,#556B2F,tetragonal,"{35,36}",1017.0
Henrysunite,Na2(C2H3O3)2(H2O),"{""Na"": 2.0, ""C"": 4.0, ""H"": 8.0, ""O"": 7.0}",214.081,#FFFFFF,orthorhombic,{},1.0
Hentschelite,CuFe3+2(PO4)2(OH)2,"{""Cu"": 1.0, ""Fe"": 2.0, ""P"": 2.0, ""O"": 10.0, ""H"": 2.0}",399.19,#556B2F,monoclinic,{47},1998.0
Hephaistosite,TlPb2Cl5,"{""Tl"": 1.0, ""Pb"": 2.0, ""Cl"": 5.0}",796.03,#FFFFFF,monoclinic,{45},424.0
Heptasartorite,Tl7Pb22As55S108,"{""Tl"": 7.0, ""Pb"": 22.0, ""As"": 55.0, ""S"": 108.0}",13572.25,#708090,monoclinic,{33},797.0
Hercynite,Fe2+Al2O4,"{""Fe"": 1.0, ""Al"": 2.0, ""O"": 4.0}",173.805,#8B4513,cubic,"{5,6,7,8,23,40,50,54}",1739.0
Herderite,CaBe(PO4)F,"{""Ca"": 1.0, ""Be"": 1.0, ""P"": 1.0, ""O"": 4.0, ""F"": 1.0}",163.0582,#FFFFFF,monoclinic,{34},564.0
Hermannroseite,CaCu(PO4)(OH),"{""Ca"": 1.0, ""Cu"": 1.0, ""P"": 1.0, ""O"": 5.0, ""H"": 1.0}",215.601,#FFFFFF,orthorhombic,{47},1998.0
Hessite,Ag2Te,"{""Ag"": 2.0, ""Te"": 1.0}",343.34,#C0C0C0,monoclinic,{33},797.0
Heterogenite,Co3+O(OH),"{""Co"": 1.0, ""O"": 2.0, ""H"": 1.0}",91.939,#4169E1,hexagonal,"{47,48}",2069.0
Heteromorphite,Pb7Sb8S19,"{""Pb"": 7.0, ""Sb"": 8.0, ""S"": 19.0}",3033.62,#708090,monoclinic,{33},797.0
Heterosite,Fe3+(PO4),"{""Fe"": 1.0, ""P"": 1.0, ""O"": 4.0}",150.815,#8B4513,orthorhombic,"{34,47}",2562.0
Hewettite,CaV5+6O16·9H2O,"{""Ca"": 1.0, ""V"": 6.0, ""O"": 25.0, ""H"": 18.0}",763.849,#FFFFFF,monoclinic,{47},1998.0
Hexacelsian,Ba(Al2Si2O8),"{""Ba"": 1.0, ""Al"": 2.0, ""Si"": 2.0, ""O"": 8.0}",375.456,#FFFFFF,hexagonal,{51},128.0
Hexahydrite,Mg(SO4)·6H2O,"{""Mg"": 1.0, ""S"": 1.0, ""O"": 10.0, ""H"": 12.0}",228.451,#FFFFFF,monoclinic,"{6,21,25,45,49,50,54,55}",1766.0
Hexahydroborite,Ca[B(OH)4]2·2H2O,"{""Ca"": 1.0, ""B"": 2.0, ""O"": 10.0, ""H"": 12.0}",233.784,#FFFFFF,monoclinic,{23},398.0
Hexathioplumbite,[Pb4(OH)4]Pb(S2O3)3,"{""Pb"": 5.0, ""O"": 13.0, ""H"": 4.0, ""S"": 6.0}",1440.379,#FFFFFF,hexagonal,{47},1998.0
Heyite,Pb5Fe2+2O4(VO4)2,"{""Pb"": 5.0, ""Fe"": 2.0, ""O"": 12.0, ""V"": 2.0}",1441.562,#556B2F,monoclinic,{47},1998.0
Heyrovskyite,Pb6Bi2S9,"{""Pb"": 6.0, ""Bi"": 2.0, ""S"": 9.0}",1949.7,#708090,orthorhombic,"{11,12,33}",962.0
Hibbingite,Fe2+2(OH)3Cl,"{""Fe"": 2.0, ""O"": 3.0, ""H"": 3.0, ""Cl"": 1.0}",198.161,#556B2F,orthorhombic,{47},1998.0
Hibonite,CaAl12O19,"{""Ca"": 1.0, ""Al"": 12.0, ""O"": 19.0}",667.843,#FFFFFF,hexagonal,"{1,3,6,31,40}",950.0
Hidalgoite,PbAl3(SO4)(AsO4)(OH)6,"{""Pb"": 1.0, ""Al"": 3.0, ""S"": 1.0, ""O"": 14.0, ""As"": 1.0, ""H"": 6.0}",625.162,#FFFFFF,hexagonal,{47},1998.0
Hielscherite,Ca6Si2[(SO4)2(SO3)2(OH)12]·22H2O,"{""Ca"": 6.0, ""Si"": 2.0, ""S"": 4.0, ""O"": 48.0, ""H"": 56.0}",1249.278,#FFFFFF,hexagonal,{47},1998.0
Hieratite,K2SiF6,"{""K"": 2.0, ""Si"": 1.0, ""F"": 6.0}",220.269,#FFFFFF,cubic,"{45,49,50,54}",1008.0
Hilairite,Na2ZrSi3O9·3H2O,"{""Na"": 2.0, ""Zr"": 1.0, ""Si"": 3.0, ""O"": 12.0, ""H"": 6.0}",419.495,#FFFFFF,hexagonal,{35},726.0
Hilarionite,Fe3+2(SO4)(AsO4)(OH)·6H2O,"{""Fe"": 2.0, ""S"": 1.0, ""O"": 15.0, ""As"": 1.0, ""H"": 13.0}",471.761,#556B2F,monoclinic,{47},1998.0
Hilgardite,Ca2B5O9Cl·H2O,"{""Ca"": 2.0, ""B"": 5.0, ""O"": 10.0, ""Cl"": 1.0, ""H"": 2.0}",331.662,#FFFFFF,monoclinic,{25},210.0
Hillebrandite,Ca2SiO3(OH)2,"{""Ca"": 2.0, ""Si"": 1.0, ""O"": 5.0, ""H"": 2.0}",190.252,#FFFFFF,orthorhombic,{31},356.0
Hingganite-(Ce),BeCe(SiO4)(OH),"{""Be"": 1.0, ""Ce"": 1.0, ""Si"": 1.0, ""O"": 5.0, ""H"": 1.0}",258.2202,#FFFFFF,monoclinic,"{34,35}",1290.0
Hingganite-(Y),BeY(SiO4)(OH),"{""Be"": 1.0, ""Y"": 1.0, ""Si"": 1.0, ""O"": 5.0, ""H"": 1.0}",207.0062,#FFFFFF,monoclinic,"{34,35}",1290.0
Hingganite-(Yb),BeYb(SiO4)(OH),"{""Be"": 1.0, ""Yb"": 1.0, ""Si"": 1.0, ""O"": 5.0, ""H"": 1.0}",291.1502,#FFFFFF,monoclinic,"{34,35}",1290.0
Hinsdalite,PbAl3(SO4)(PO4)(OH)6,"{""Pb"": 1.0, ""Al"": 3.0, ""S"": 1.0, ""O"": 14.0, ""P"": 1.0, ""H"": 6.0}",581.214,#FFFFFF,hexagonal,{47},1998.0
Hiroseite,FeSiO3,"{""Fe"": 1.0, ""Si"": 1.0, ""O"": 3.0}",131.927,#8B4513,orthorhombic,"{6,39}",275.0
Hisingerite,Fe2Si2O5(OH)4·2H2O,"{""Fe"": 2.0, ""Si"": 2.0, ""O"": 11.0, ""H"": 8.0}",351.913,#556B2F,unknown,"{22,47}",2245.0
Hitachiite,Pb5Bi2Te2S6,"{""Pb"": 5.0, ""Bi"": 2.0, ""Te"": 2.0, ""S"": 6.0}",1901.52,#708090,hexagonal,{33},797.0
Hizenite-(Y),Ca2Y6(CO3)11·14H2O,"{""Ca"": 2.0, ""Y"": 6.0, ""C"": 11.0, ""O"": 47.0, ""H"": 28.0}",1525.89,#FFFFFF,orthorhombic,{47},1998.0
Hochelagaite,CaNb4O11·8H2O,"{""Ca"": 1.0, ""Nb"": 4.0, ""O"": 19.0, ""H"": 16.0}",731.811,#FFFFFF,monoclinic,{35},726.0
Hodrusite,Cu8Bi12S22,"{""Cu"": 8.0, ""Bi"": 12.0, ""S"": 22.0}",3721.448,#A9A9A9,monoclinic,{33},797.0
Hoelite,C14H8O2,"{""C"": 14.0, ""H"": 8.0, ""O"": 2.0}",208.216,#FFFFFF,monoclinic,"{50,54}",507.0
Hoganite,Cu(CH3COO)2·H2O,"{""Cu"": 1.0, ""C"": 4.0, ""H"": 8.0, ""O"": 5.0}",199.649,#FFFFFF,monoclinic,"{53,55}",381.0
Hogtuvaite,Ca4[Fe2+6Fe3+6]O4[Si8Be2Al2O36],"{""Ca"": 4.0, ""Fe"": 12.0, ""O"": 40.0, ""Si"": 8.0, ""Be"": 2.0, ""Al"": 2.0}",1767.0804,#556B2F,triclinic,{40},319.0
Hohmannite,Fe3+2O(SO4)2·8H2O,"{""Fe"": 2.0, ""O"": 17.0, ""S"": 2.0, ""H"": 16.0}",463.921,#556B2F,triclinic,{47},1998.0
Hokkaidoite,C22H12,"{""C"": 22.0, ""H"": 12.0}",276.338,#FFFFFF,monoclinic,{},1.0
Hollingworthite,RhAsS,"{""Rh"": 1.0, ""As"": 1.0, ""S"": 1.0}",209.892,#FFD700,cubic,"{7,26,33,37}",1305.0
Hollisterite,Al3Fe,"{""Al"": 3.0, ""Fe"": 1.0}",136.791,#8B4513,monoclinic,{6},205.0
Holtstamite,Ca3Al2(SiO4)2(OH)4,"{""Ca"": 3.0, ""Al"": 2.0, ""Si"": 2.0, ""O"": 12.0, ""H"": 4.0}",426.388,#FFFFFF,tetragonal,"{31,47}",2354.0
Holubite,Ag3Pb6(Sb8Bi3)S24,"{""Ag"": 3.0, ""Pb"": 6.0, ""Sb"": 8.0, ""Bi"": 3.0, ""S"": 24.0}",3937.27,#708090,monoclinic,{},1.0
Homilite,Ca2Fe2+B2Si2O10,"{""Ca"": 2.0, ""Fe"": 1.0, ""B"": 2.0, ""Si"": 2.0, ""O"": 10.0}",373.781,#556B2F,monoclinic,{35},726.0
Honeaite,Au3TlTe2,"{""Au"": 3.0, ""Tl"": 1.0, ""Te"": 2.0}",1050.49,#FFD700,orthorhombic,"{23,33}",1195.0
Hongshiite,PtCu,"{""Pt"": 1.0, ""Cu"": 1.0}",258.626,#00BFFF,hexagonal,"{26,37}",385.0
Honzaite,Ni2[AsO3(OH)]2(H2O)5,"{""Ni"": 2.0, ""As"": 2.0, ""O"": 13.0, ""H"": 12.0}",487.313,#FFFFFF,monoclinic,{47},1998.0
Hoperanchite,(NH4)2(S2O3),"{""N"": 2.0, ""H"": 8.0, ""S"": 2.0, ""O"": 3.0}",148.195,#FFFFFF,monoclinic,{},1.0
Hopmannite,Ba2(Ti5Fe)O13,"{""Ba"": 2.0, ""Ti"": 5.0, ""Fe"": 1.0, ""O"": 13.0}",777.827,#556B2F,monoclinic,{},1.0
Hornesite,Mg3(AsO4)2·8H2O,"{""Mg"": 3.0, ""As"": 2.0, ""O"": 16.0, ""H"": 16.0}",494.871,#FFFFFF,monoclinic,{31},356.0
Horomanite,Fe6Ni3S8,"{""Fe"": 6.0, ""Ni"": 3.0, ""S"": 8.0}",767.629,#DAA520,tetragonal,"{7,12,33}",1049.0
Horvathite-(Y),NaY(CO3)F2,"{""Na"": 1.0, ""Y"": 1.0, ""C"": 1.0, ""O"": 3.0, ""F"": 2.0}",209.9,#FFFFFF,orthorhombic,{35},726.0
Hoslite,Fe3+3(VO4)2(SO4)(OH)(H2O)4·3H2O,"{""Fe"": 3.0, ""V"": 2.0, ""O"": 20.0, ""S"": 1.0, ""H"": 15.0}",636.579,#556B2F,monoclinic,{47},1998.0
Hotsonite,Al5(SO4)(PO4)(OH)10·8H2O,"{""Al"": 5.0, ""S"": 1.0, ""O"": 26.0, ""P"": 1.0, ""H"": 26.0}",640.126,#FFFFFF,triclinic,{47},1998.0
Housleyite,Pb6CuTe4O18(OH)2,"{""Pb"": 6.0, ""Cu"": 1.0, ""Te"": 4.0, ""O"": 20.0, ""H"": 2.0}",2139.142,#FFFFFF,monoclinic,{47},1998.0
Howardevansite,NaCu2+Fe3+2(VO4)3,"{""Na"": 1.0, ""Cu"": 1.0, ""Fe"": 2.0, ""V"": 3.0, ""O"": 12.0}",543.04,#556B2F,triclinic,{45},424.0
Howlite,Ca2SiB5O9(OH)5,"{""Ca"": 2.0, ""Si"": 1.0, ""B"": 5.0, ""O"": 14.0, ""H"": 5.0}",391.317,#FFFFFF,monoclinic,{25},210.0
Hrabakite,Ni9PbSbS8,"{""Ni"": 9.0, ""Pb"": 1.0, ""Sb"": 1.0, ""S"": 8.0}",1113.677,#708090,tetragonal,{33},797.0
Hsianghualite,Li2Ca3Be3(SiO4)3F2,"{""Li"": 2.0, ""Ca"": 3.0, ""Be"": 3.0, ""Si"": 3.0, ""O"": 12.0, ""F"": 2.0}",475.3896,#FFFFFF,cubic,{22},247.0
Huanghoite-(Ce),BaCe(CO3)2F,"{""Ba"": 1.0, ""Ce"": 1.0, ""C"": 2.0, ""O"": 6.0, ""F"": 1.0}",416.464,#FFFFFF,hexagonal,"{35,36}",1017.0
Huanghoite-(Nd),BaNd(CO3)2F,"{""Ba"": 1.0, ""Nd"": 1.0, ""C"": 2.0, ""O"": 6.0, ""F"": 1.0}",420.584,#FFFFFF,hexagonal,{},1.0
Huanzalaite,Mg(WO4),"{""Mg"": 1.0, ""W"": 1.0, ""O"": 4.0}",272.141,#FFFFFF,monoclinic,{31},356.0
Hubbardite,Mg(H2O)6[(UO2)2O(OH)(SO4)]2·8H2O,"{""Mg"": 1.0, ""H"": 30.0, ""O"": 34.0, ""U"": 4.0, ""S"": 2.0}",1614.751,#FFFFFF,orthorhombic,{},1.0
Huemulite,Na4MgV5+10O28·24H2O,"{""Na"": 4.0, ""Mg"": 1.0, ""V"": 10.0, ""O"": 52.0, ""H"": 48.0}",1506.017,#FFFFFF,triclinic,"{47,50,55}",2535.0
Huenite,Cu4(MoO4)3(OH)2,"{""Cu"": 4.0, ""Mo"": 3.0, ""O"": 14.0, ""H"": 2.0}",768.036,#FFFFFF,hexagonal,{47},1998.0
Hugelite,Pb2(UO2)3(AsO4)2O2·5H2O,"{""Pb"": 2.0, ""U"": 3.0, ""O"": 21.0, ""As"": 2.0, ""H"": 10.0}",1624.393,#FFFFFF,monoclinic,{47},1998.0
Hughesite,Na3AlV10O28·22H2O,"{""Na"": 3.0, ""Al"": 1.0, ""V"": 10.0, ""O"": 50.0, ""H"": 44.0}",1449.674,#FFFFFF,triclinic,"{47,55}",2262.0
Huizingite-(Al),(NH4)9Al3(SO4)8(OH)2·4H2O,"{""N"": 9.0, ""H"": 46.0, ""Al"": 3.0, ""S"": 8.0, ""O"": 38.0}",1117.819,#FFFFFF,triclinic,"{45,47,50,54}",2929.0
Hulsite,Fe2+2Fe3+O2(BO3),"{""Fe"": 3.0, ""O"": 5.0, ""B"": 1.0}",258.34,#8B4513,monoclinic,{23},398.0