name,formula,elements,density,color,crystal,pm_ids,gacha_weight
Yukonite,Ca2Fe3+3(AsO4)3(OH)4·4H2O,"{""Ca"": 2.0, ""Fe"": 3.0, ""As"": 3.0, ""O"": 20.0, ""H"": 12.0}",804.533,#556B2F,unknown,{47},1.5015e-07
Yunhaoite,K2(MoO4),"{""K"": 2.0, ""Mo"": 1.0, ""O"": 4.0}",238.142,#FFFFFF,monoclinic,{},1e-06
Yurgensonite,K2SnTiO2(AsO4)2,"{""K"": 2.0, ""Sn"": 1.0, ""Ti"": 1.0, ""O"": 10.0, ""As"": 2.0}",554.607,#FFFFFF,orthorhombic,{45},7.075e-09
Yusupovite,Na2Zr(Si6O15)(H2O)3,"{""Na"": 2.0, ""Zr"": 1.0, ""Si"": 6.0, ""O"": 18.0, ""H"": 6.0}",599.744,#FFFFFF,monoclinic,{35},1.3774e-08
Yuzuxiangite,Sr3Fe3+(Si2O6)2(OH)·3H2O,"{""Sr"": 3.0, ""Fe"": 1.0, ""Si"": 4.0, ""O"": 16.0, ""H"": 7.0}",694.085,#556B2F,monoclinic,{47},1.5015e-07
Yvonite,Cu(AsO3OH)·2H2O,"{""Cu"": 1.0, ""As"": 1.0, ""O"": 6.0, ""H"": 5.0}",239.502,#FFFFFF,triclinic,{47},1.5015e-07
Zabuyelite,Li2(CO3),"{""Li"": 2.0, ""C"": 1.0, ""O"": 3.0}",73.888,#FFFFFF,monoclinic,{34},1.773e-08
Zaccagnaite,Zn4Al2(OH)12(CO3)·3H2O,"{""Zn"": 4.0, ""Al"": 2.0, ""O"": 18.0, ""H"": 18.0, ""C"": 1.0}",633.621,#FFFFFF,hexagonal,{23},1.758794e-06
Zaccariniite,RhNiAs,"{""Rh"": 1.0, ""Ni"": 1.0, ""As"": 1.0}",236.525,#7FFF00,tetragonal,"{33,37}",8.6621e-08
Zadovite,BaCa6[(SiO4)(PO4)](PO4)2F,"{""Ba"": 1.0, ""Ca"": 6.0, ""Si"": 1.0, ""O"": 16.0, ""P"": 3.0, ""F"": 1.0}",773.787,#FFFFFF,hexagonal,"{31,51}",5.311e-09
Zaherite,Al12(SO4)5(OH)26·20H2O,"{""Al"": 12.0, ""S"": 5.0, ""O"": 66.0, ""H"": 66.0}",1606.546,#FFFFFF,triclinic,"{46,47}",6.849e-09
Zairite,BiFe3+3(PO4)2(OH)6,"{""Bi"": 1.0, ""Fe"": 3.0, ""P"": 2.0, ""O"": 14.0, ""H"": 6.0}",668.497,#556B2F,hexagonal,{47},1.5015e-08
Zakharovite,Na4Mn2+5Si10O24(OH)6·6H2O,"{""Na"": 4.0, ""Mn"": 5.0, ""Si"": 10.0, ""O"": 36.0, ""H"": 18.0}",1241.608,#FFFFFF,hexagonal,{35},6.89e-10
Zalesiite,CaCu6(AsO4)2(AsO3OH)(OH)6·3H2O,"{""Ca"": 1.0, ""Cu"": 6.0, ""As"": 3.0, ""O"": 21.0, ""H"": 13.0}",995.203,#FFFFFF,hexagonal,{47},1.5015e-07
Zanazziite,Ca2Be4Mg5(PO4)6(OH)4·6H2O,"{""Ca"": 2.0, ""Be"": 4.0, ""Mg"": 5.0, ""P"": 6.0, ""O"": 34.0, ""H"": 16.0}",983.6678,#FFFFFF,monoclinic,{34},1.773e-09
Zangboite,TiFeSi2,"{""Ti"": 1.0, ""Fe"": 1.0, ""Si"": 2.0}",159.882,#8B4513,orthorhombic,"{29,36,38}",4.66658e-07
Zapatalite,Cu3Al4(PO4)3(OH)9·4H2O,"{""Cu"": 3.0, ""Al"": 4.0, ""P"": 3.0, ""O"": 25.0, ""H"": 17.0}",808.599,#FFFFFF,tetragonal,{47},1.5015e-08
Zaratite,Ni3(CO3)(OH)4·4H2O,"{""Ni"": 3.0, ""C"": 1.0, ""O"": 11.0, ""H"": 12.0}",376.175,#FFFFFF,unknown,{47},1.5015e-07
Zavaliaite,Mn2+3(PO4)2,"{""Mn"": 3.0, ""P"": 2.0, ""O"": 8.0}",354.754,#FFB6C1,monoclinic,{34},8.87e-10
Zavaritskite,BiOF,"{""Bi"": 1.0, ""O"": 1.0, ""F"": 1.0}",243.977,#D2B48C,tetragonal,{47},7.508e-09
Zavyalovite,Ag2TeS3,"{""Ag"": 2.0, ""Te"": 1.0, ""S"": 3.0}",439.52,#A9A9A9,monoclinic,{},2e-08
Zaykovite,Rh3Se4,"{""Rh"": 3.0, ""Se"": 4.0}",624.614,#FFFFFF,monoclinic,"{26,33}",5.2547e-08
Zdenekite,NaPbCu5(AsO4)4Cl·5H2O,"{""Na"": 1.0, ""Pb"": 1.0, ""Cu"": 5.0, ""As"": 4.0, ""O"": 21.0, ""Cl"": 1.0, ""H"": 10.0}",1229.117,#FFFFFF,monoclinic,"{47,55}",1.88029e-07
Zektzerite,NaLiZrSi6O15,"{""Na"": 1.0, ""Li"": 1.0, ""Zr"": 1.0, ""Si"": 6.0, ""O"": 15.0}",529.649,#FFFFFF,orthorhombic,{19},3.4965035e-05
Zellerite,Ca(UO2)(CO3)2·5H2O,"{""Ca"": 1.0, ""U"": 1.0, ""O"": 13.0, ""C"": 2.0, ""H"": 10.0}",520.197,#FFFFFF,orthorhombic,{47},1.5015e-07
Zemkorite,Na2Ca(CO3)2,"{""Na"": 2.0, ""Ca"": 1.0, ""C"": 2.0, ""O"": 6.0}",206.074,#FFFFFF,hexagonal,{8},6.451613e-06
Zenzenite,Pb3Fe3+4Mn4+3O15,"{""Pb"": 3.0, ""Fe"": 4.0, ""Mn"": 3.0, ""O"": 15.0}",1249.779,#556B2F,hexagonal,"{23,32}",8.9153e-08
Zeophyllite,Ca13Si10O28(OH)2F8·6H2O,"{""Ca"": 13.0, ""Si"": 10.0, ""O"": 36.0, ""H"": 14.0, ""F"": 8.0}",1543.924,#FFFFFF,hexagonal,"{9,10,22}",1.0634e-08
Zeravshanite,Na2Cs4Zr3Si18O45·2H2O,"{""Na"": 2.0, ""Cs"": 4.0, ""Zr"": 3.0, ""Si"": 18.0, ""O"": 47.0, ""H"": 4.0}",2112.807,#FFFFFF,monoclinic,{34},1.773e-08
Zeunerite,Cu(UO2)2(AsO4)2·12H2O,"{""Cu"": 1.0, ""U"": 2.0, ""O"": 24.0, ""As"": 2.0, ""H"": 24.0}",1097.618,#FFFFFF,tetragonal,{47},1.5015e-07
Zhanghengite,CuZn,"{""Cu"": 1.0, ""Zn"": 1.0}",128.926,#00BFFF,cubic,"{7,33}",9.3848e-08
Zhanghuifenite,Na3Mn2+4Mg2Al(PO4)6,"{""Na"": 3.0, ""Mn"": 4.0, ""Mg"": 2.0, ""Al"": 1.0, ""P"": 6.0, ""O"": 24.0}",934.134,#FFFFFF,monoclinic,{34},8.87e-10
Zhangpeishanite,BaFCl,"{""Ba"": 1.0, ""F"": 1.0, ""Cl"": 1.0}",191.778,#FFFFFF,tetragonal,"{23,50,54}",9.1908e-08
Zharchikhite,Al(OH)2F,"{""Al"": 1.0, ""O"": 2.0, ""H"": 2.0, ""F"": 1.0}",79.994,#FFFFFF,monoclinic,"{10,16}",1.0697e-08
Zhemchuzhnikovite,NaMgAl(C2O4)3·9H2O,"{""Na"": 1.0, ""Mg"": 1.0, ""Al"": 1.0, ""C"": 6.0, ""O"": 21.0, ""H"": 18.0}",500.466,#FFFFFF,hexagonal,{50},3.663e-08
Zhengminghuaite,Cu6Fe3As4S12,"{""Cu"": 6.0, ""Fe"": 3.0, ""As"": 4.0, ""S"": 12.0}",1233.219,#DAA520,hexagonal,{},2e-08
Zhenruite,(MoO3)2·H2O,"{""Mo"": 2.0, ""O"": 7.0, ""H"": 2.0}",305.909,#FFFFFF,monoclinic,{},1e-06
Zheshengite,Pb4ZnZn2(AsO4)2(PO4)2(OH)2,"{""Pb"": 4.0, ""Zn"": 3.0, ""As"": 2.0, ""O"": 18.0, ""P"": 2.0, ""H"": 2.0}",1526.73,#FFFFFF,triclinic,{47},1.5015e-08
Zhiqinite,TiSi2,"{""Ti"": 1.0, ""Si"": 2.0}",104.037,#FFFFFF,orthorhombic,{38},2.7778e-08
Ziesite,Cu2V5+2O7,"{""Cu"": 2.0, ""V"": 2.0, ""O"": 7.0}",340.969,#00BFFF,triclinic,{45},2.3585e-08
Zigrasite,MgZr(PO4)2·4H2O,"{""Mg"": 1.0, ""Zr"": 1.0, ""P"": 2.0, ""O"": 12.0, ""H"": 8.0}",377.529,#FFFFFF,triclinic,{22},4.049e-09
Zilbermintsite-(La),(CaLa5)(Fe3+Al3Fe2+)[Si2O7][SiO4]5O(OH)3,"{""Ca"": 1.0, ""La"": 5.0, ""Fe"": 2.0, ""Al"": 3.0, ""Si"": 7.0, ""O"": 31.0, ""H"": 3.0}",1622.852,#556B2F,monoclinic,{},1e-06
Ziminaite,Fe3+(VO4),"{""Fe"": 1.0, ""V"": 1.0, ""O"": 4.0}",170.783,#8B4513,triclinic,{45},2.3585e-08
Zinc,Zn,"{""Zn"": 1.0}",65.38,#FFFFFF,hexagonal,"{8,11,26,36,38,47,56}",7.116428e-06
Zincalstibite,Zn2Al(OH)6[Sb(OH)6],"{""Zn"": 2.0, ""Al"": 1.0, ""O"": 12.0, ""H"": 12.0, ""Sb"": 1.0}",483.586,#FFFFFF,hexagonal,{47},1.5015e-07
Zincite,ZnO,"{""Zn"": 1.0, ""O"": 1.0}",81.379,#FFFFFF,hexagonal,"{38,47,56}",3.12673e-07
Zinclipscombite,ZnFe3+2(PO4)2(OH)2,"{""Zn"": 1.0, ""Fe"": 2.0, ""P"": 2.0, ""O"": 10.0, ""H"": 2.0}",401.024,#556B2F,tetragonal,{22},4.049e-09
Zincmelanterite,Zn(SO4)·7H2O,"{""Zn"": 1.0, ""S"": 1.0, ""O"": 11.0, ""H"": 14.0}",287.541,#FFFFFF,monoclinic,{47},3.003e-09
Zincoberaunite,ZnFe3+5(PO4)4(OH)5·6H2O,"{""Zn"": 1.0, ""Fe"": 5.0, ""P"": 4.0, ""O"": 27.0, ""H"": 17.0}",917.61,#556B2F,monoclinic,{47},1.5015e-08
Zincobotryogen,ZnFe3+(SO4)2(OH)·7H2O,"{""Zn"": 1.0, ""Fe"": 1.0, ""S"": 2.0, ""O"": 16.0, ""H"": 15.0}",456.449,#556B2F,monoclinic,{47},3.003e-09
Zincobradaczekite,NaCuCuZn2(AsO4)3,"{""Na"": 1.0, ""Cu"": 2.0, ""Zn"": 2.0, ""As"": 3.0, ""O"": 12.0}",697.596,#FFFFFF,monoclinic,{45},2.3585e-08
Zincochenite,Pb4Zn(OH)6(SO4)2,"{""Pb"": 4.0, ""Zn"": 1.0, ""O"": 14.0, ""H"": 6.0, ""S"": 2.0}",1188.334,#FFFFFF,triclinic,{47},3.003e-09
Zincochromite,ZnCr2O4,"{""Zn"": 1.0, ""Cr"": 2.0, ""O"": 4.0}",233.368,#228B22,cubic,"{8,26,32,37,51}",6.668084e-06
Zincocopiapite,ZnFe3+4(SO4)6(OH)2·20H2O,"{""Zn"": 1.0, ""Fe"": 4.0, ""S"": 6.0, ""O"": 46.0, ""H"": 42.0}",1259.41,#556B2F,triclinic,"{14,47}",6.282e-09
Zincolibethenite,CuZn(PO4)(OH),"{""Cu"": 1.0, ""Zn"": 1.0, ""P"": 1.0, ""O"": 5.0, ""H"": 1.0}",240.903,#FFFFFF,orthorhombic,{47},1.5015e-08
Zincolivenite,CuZn(AsO4)(OH),"{""Cu"": 1.0, ""Zn"": 1.0, ""As"": 1.0, ""O"": 5.0, ""H"": 1.0}",284.851,#FFFFFF,orthorhombic,{47},1.5015e-07
Zincomenite,ZnSeO3,"{""Zn"": 1.0, ""Se"": 1.0, ""O"": 3.0}",192.348,#FFFFFF,orthorhombic,{45},2.3585e-08
Zinconigerite-2N1S,ZnSn2Al12O22(OH)2,"{""Zn"": 1.0, ""Sn"": 2.0, ""Al"": 12.0, ""O"": 24.0, ""H"": 2.0}",1012.576,#FFFFFF,hexagonal,"{31,34}",4.582e-08
Zinconigerite-6N6S,Zn3Sn2Al16O30(OH)2,"{""Zn"": 3.0, ""Sn"": 2.0, ""Al"": 16.0, ""O"": 32.0, ""H"": 2.0}",1379.256,#FFFFFF,hexagonal,"{19,34}",3.4982765e-05
Zincorietveldite,Zn(UO2)(SO4)2(H2O)5,"{""Zn"": 1.0, ""U"": 1.0, ""O"": 15.0, ""S"": 2.0, ""H"": 10.0}",617.595,#FFFFFF,orthorhombic,{},2e-08
Zincorinmanite-(Zn),ZnSb5+(Fe3+2Zn)O7(OH),"{""Zn"": 2.0, ""Sb"": 1.0, ""Fe"": 2.0, ""O"": 8.0, ""H"": 1.0}",493.21,#556B2F,hexagonal,{},1e-06
Zincospiroffite,Zn2Te3O8,"{""Zn"": 2.0, ""Te"": 3.0, ""O"": 8.0}",641.552,#FFFFFF,monoclinic,{47},1.5015e-07
Zincostaurolite,Zn2Al9Si4O23(OH),"{""Zn"": 2.0, ""Al"": 9.0, ""Si"": 4.0, ""O"": 24.0, ""H"": 1.0}",870.922,#FFFFFF,monoclinic,"{32,48}",1.65117e-07
Zincostottite,ZnGe(OH)6,"{""Zn"": 1.0, ""Ge"": 1.0, ""O"": 6.0, ""H"": 6.0}",240.052,#FFFFFF,tetragonal,{},1e-06
Zincovoltaite,K2Zn5Fe3+3Al(SO4)12·18H2O,"{""K"": 2.0, ""Zn"": 5.0, ""Fe"": 3.0, ""Al"": 1.0, ""S"": 12.0, ""O"": 66.0, ""H"": 36.0}",2076.555,#556B2F,cubic,"{45,47}",3.475e-09
Zincroselite,Ca2Zn(AsO4)2·2H2O,"{""Ca"": 2.0, ""Zn"": 1.0, ""As"": 2.0, ""O"": 10.0, ""H"": 4.0}",459.402,#FFFFFF,monoclinic,{47},1.5015e-07
Zincsilite,Zn3Si4O10(OH)2·4H2O (?),"{""Zn"": 3.0, ""Si"": 4.0, ""O"": 16.0, ""H"": 10.0}",574.544,#FFFFFF,unknown,{47},1.5015e-07
Zinkenite,Pb9Sb22S42,"{""Pb"": 9.0, ""Sb"": 22.0, ""S"": 42.0}",5890.04,#708090,hexagonal,{33},2.51e-10
Zinkgruvanite,Ba4Mn2+4Fe3+2(Si2O7)2(SO4)2O2(OH)2,"{""Ba"": 4.0, ""Mn"": 4.0, ""Fe"": 2.0, ""Si"": 4.0, ""O"": 26.0, ""S"": 2.0, ""H"": 2.0}",1475.212,#556B2F,unknown,{32},4.85e-10
Zinkosite,Zn(SO4),"{""Zn"": 1.0, ""S"": 1.0, ""O"": 4.0}",161.436,#FFFF00,orthorhombic,{47},3.003e-09
Zippeite,K2[(UO2)4(SO4)2O2(OH)2](H2O)4,"{""K"": 2.0, ""U"": 4.0, ""O"": 24.0, ""S"": 2.0, ""H"": 10.0}",1488.492,#FFFFFF,orthorhombic,{47},3.003e-09
Zipserite,Bi5S4,"{""Bi"": 5.0, ""S"": 4.0}",1173.14,#A9A9A9,hexagonal,{},2e-08
Zircarsite,Na18Cu12ZrO8(AsO4)8Cl6,"{""Na"": 18.0, ""Cu"": 12.0, ""Zr"": 1.0, ""O"": 40.0, ""As"": 8.0, ""Cl"": 6.0}",2719.632,#FFFFFF,cubic,{},1e-06
Zircon,Zr(SiO4),"{""Zr"": 1.0, ""Si"": 1.0, ""O"": 4.0}",183.305,#FFFFFF,tetragonal,"{5,8,19,26,29,34,35,36,38}",4.3150064e-05
Zircophyllite,K2NaFe2+7Zr2(Si4O12)2O2(OH)4F,"{""K"": 2.0, ""Na"": 1.0, ""Fe"": 7.0, ""Zr"": 2.0, ""Si"": 8.0, ""O"": 30.0, ""H"": 4.0, ""F"": 1.0}",1402.229,#556B2F,unknown,{35},6.89e-10
Zircosulfate,Zr(SO4)2·4H2O,"{""Zr"": 1.0, ""S"": 2.0, ""O"": 12.0, ""H"": 8.0}",355.396,#FFFFFF,orthorhombic,{46},3.846e-09
Ziroite,ZrO2,"{""Zr"": 1.0, ""O"": 2.0}",123.222,#FFFFFF,tetragonal,{51},7.8125e-08
Zirsinalite,Na6CaZrSi6O18,"{""Na"": 6.0, ""Ca"": 1.0, ""Zr"": 1.0, ""Si"": 6.0, ""O"": 18.0}",725.734,#FFFFFF,hexagonal,{35},1.3774e-08
Zlatogorite,CuNiSb2,"{""Cu"": 1.0, ""Ni"": 1.0, ""Sb"": 2.0}",365.759,#00BFFF,hexagonal,"{33,56}",8.2477e-08
Znamenskyite,Pb4In2Bi4S13,"{""Pb"": 4.0, ""In"": 2.0, ""Bi"": 4.0, ""S"": 13.0}",2311.14,#708090,orthorhombic,{11},5.556e-09
Znucalite,Zn10Ca(UO2)(CO3)4(OH)16(H2O)5,"{""Zn"": 10.0, ""Ca"": 1.0, ""U"": 1.0, ""O"": 35.0, ""C"": 4.0, ""H"": 26.0}",1566.125,#FFFFFF,monoclinic,"{47,55}",1.88029e-07
Zodacite,Ca4Mn2+Fe3+4(PO4)6(OH)4·12H2O,"{""Ca"": 4.0, ""Mn"": 1.0, ""Fe"": 4.0, ""P"": 6.0, ""O"": 40.0, ""H"": 28.0}",1292.658,#556B2F,monoclinic,{34},8.87e-10
Zoisite,Ca2Al3[Si2O7][SiO4]O(OH),"{""Ca"": 2.0, ""Al"": 3.0, ""Si"": 3.0, ""O"": 13.0, ""H"": 1.0}",454.352,#FFFFFF,orthorhombic,"{16,31,39,40,41}",1.3417063e-05
Zoisite-(Pb),CaPbAl3[Si2O7][SiO4]O(OH),"{""Ca"": 1.0, ""Pb"": 1.0, ""Al"": 3.0, ""Si"": 3.0, ""O"": 13.0, ""H"": 1.0}",621.474,#FFFFFF,orthorhombic,{32},2.4272e-08
Zolenskyite,FeCr2S4,"{""Fe"": 1.0, ""Cr"": 2.0, ""S"": 4.0}",288.077,#DAA520,monoclinic,{4},4.255e-09
Zolotarevite,Na5Zr[Si6O15(OH)3]·3H2O,"{""Na"": 5.0, ""Zr"": 1.0, ""Si"": 6.0, ""O"": 21.0, ""H"": 9.0}",719.735,#FFFFFF,hexagonal,{35},1.3774e-08
Zoltaiite,BaV4+2V3+12Si2O27,"{""Ba"": 1.0, ""V"": 14.0, ""Si"": 2.0, ""O"": 27.0}",1338.661,#FFFFFF,hexagonal,{53},8.547e-08
Zoubekite,AgPb4Sb4S10,"{""Ag"": 1.0, ""Pb"": 4.0, ""Sb"": 4.0, ""S"": 10.0}",1744.31,#708090,orthorhombic,{33},2.51e-10
Zoyashlyukovaite,MoC,"{""Mo"": 1.0, ""C"": 1.0}",107.961,#FFFFFF,hexagonal,{},1e-06
Zubkovaite,Ca3Cu3(AsO4)4,"{""Ca"": 3.0, ""Cu"": 3.0, ""As"": 4.0, ""O"": 16.0}",866.544,#FFFFFF,monoclinic,{45},2.3585e-08
Zugshunstite-(Ce),CeAl(SO4)2(C2O4)·12H2O,"{""Ce"": 1.0, ""Al"": 1.0, ""S"": 2.0, ""O"": 24.0, ""C"": 2.0, ""H"": 24.0}",663.412,#FFFFFF,monoclinic,"{25,47}",3.955e-09
Zuktamrurite,FeP2,"{""Fe"": 1.0, ""P"": 2.0}",117.793,#8B4513,orthorhombic,{51},7.812e-09
Zvestovite-(Fe),Ag6(Ag4Fe2)As4S13,"{""Ag"": 10.0, ""Fe"": 2.0, ""As"": 4.0, ""S"": 13.0}",1906.858,#DAA520,cubic,{},2e-08
Zvestovite-(Zn),Ag6(Ag4Zn2)As4S13,"{""Ag"": 10.0, ""Zn"": 2.0, ""As"": 4.0, ""S"": 13.0}",1925.928,#FFD700,cubic,{33},2.51e-10
Zvyagintsevite,Pd3Pb,"{""Pd"": 3.0, ""Pb"": 1.0}",526.46,#FFFFFF,cubic,"{6,12,26,33,37}",2.52921e-07
Zwieselite,Fe2+2(PO4)F,"{""Fe"": 2.0, ""P"": 1.0, ""O"": 4.0, ""F"": 1.0}",225.658,#556B2F,monoclinic,{34},8.87e-10
Zykaite,Fe3+4(AsO4)3(SO4)(OH)·15H2O,"{""Fe"": 4.0, ""As"": 3.0, ""O"": 32.0, ""S"": 1.0, ""H"": 31.0}",1023.422,#556B2F,orthorhombic,"{47,55}",3.761e-09