name,formula,elements,density,color,crystal,pm_ids,gacha_weight
Offretite,KCaMg(Si13Al5)O36·15H2O,"{""K"": 1.0, ""Ca"": 1.0, ""Mg"": 1.0, ""Si"": 13.0, ""Al"": 5.0, ""O"": 51.0, ""H"": 30.0}",1449.685,#FFFFFF,hexagonal,{10},1.21495e-07
Ogdensburgite,Ca2Fe3+4Zn(AsO4)4(OH)6·6H2O,"{""Ca"": 2.0, ""Fe"": 4.0, ""Zn"": 1.0, ""As"": 4.0, ""O"": 28.0, ""H"": 18.0}",1134.72,#556B2F,orthorhombic,{47},1.5015e-07
Ognitite,NiBiTe,"{""Ni"": 1.0, ""Bi"": 1.0, ""Te"": 1.0}",395.273,#7FFF00,hexagonal,{37},7.4074e-08
Ojuelaite,ZnFe3+2(AsO4)2(OH)2·4H2O,"{""Zn"": 1.0, ""Fe"": 2.0, ""As"": 2.0, ""O"": 14.0, ""H"": 10.0}",560.98,#556B2F,monoclinic,{47},1.5015e-07
Okayamalite,Ca2B2SiO7,"{""Ca"": 2.0, ""B"": 2.0, ""Si"": 1.0, ""O"": 7.0}",241.854,#FFFFFF,tetragonal,{23},1.758794e-06
Okenite,Ca10Si18O46·18H2O,"{""Ca"": 10.0, ""Si"": 18.0, ""O"": 64.0, ""H"": 36.0}",1966.534,#FFFFFF,triclinic,"{47,51}",2.96758e-07
Okhotskite,Ca2Mn2+Mn3+2(Si2O7)(SiO4)(OH)2·H2O,"{""Ca"": 2.0, ""Mn"": 3.0, ""Si"": 3.0, ""O"": 14.0, ""H"": 4.0}",557.243,#FFFFFF,monoclinic,{22},2.024e-09
Okieite,Mg3[V10O28]·28H2O,"{""Mg"": 3.0, ""V"": 10.0, ""O"": 56.0, ""H"": 56.0}",1534.727,#FFFFFF,triclinic,{47},1.5015e-07
Okruginite,Cu2SnSe3,"{""Cu"": 2.0, ""Sn"": 1.0, ""Se"": 3.0}",482.715,#00BFFF,monoclinic,{},1e-06
Okruschite,Ca2Mn2+5Be4(AsO4)6(OH)4·6H2O,"{""Ca"": 2.0, ""Mn"": 5.0, ""Be"": 4.0, ""As"": 6.0, ""O"": 34.0, ""H"": 16.0}",1400.5208,#FFFFFF,monoclinic,{47},7.508e-09
Oldhamite,CaS,"{""Ca"": 1.0, ""S"": 1.0}",72.138,#A9A9A9,cubic,"{1,4,5,50,51,54,56}",2.0022e-08
Oldsite-(K),K2Fe2+[(UO2)(SO4)2]2(H2O)8,"{""K"": 2.0, ""Fe"": 1.0, ""U"": 2.0, ""O"": 28.0, ""S"": 4.0, ""H"": 16.0}",1202.441,#556B2F,orthorhombic,{47},3.003e-09
Olekminskite,Sr2(CO3)2,"{""Sr"": 2.0, ""C"": 2.0, ""O"": 6.0}",295.256,#FFFFFF,hexagonal,"{35,36}",4.8138e-08
Olenite,NaAl3Al6(Si6O18)(BO3)3O3(OH),"{""Na"": 1.0, ""Al"": 9.0, ""Si"": 6.0, ""O"": 31.0, ""B"": 3.0, ""H"": 1.0}",963.745,#FFFFFF,hexagonal,"{19,23,26,34,40}",4.6185948e-05
Olgafrankite,Ni3Ge,"{""Ni"": 3.0, ""Ge"": 1.0}",248.709,#7FFF00,cubic,{},1e-06
Olivenite,Cu2(AsO4)(OH),"{""Cu"": 2.0, ""As"": 1.0, ""O"": 5.0, ""H"": 1.0}",283.017,#FFFFFF,orthorhombic,{47},1.5015e-07
Olkhonskite,Cr2Ti3O9,"{""Cr"": 2.0, ""Ti"": 3.0, ""O"": 9.0}",391.584,#228B22,monoclinic,{40},2.821317e-06
Olmiite,CaMn[SiO3(OH)](OH),"{""Ca"": 1.0, ""Mn"": 1.0, ""Si"": 1.0, ""O"": 5.0, ""H"": 2.0}",205.112,#FFFFFF,orthorhombic,{22},2.024e-09
Olmsteadite,KFe2+2NbO2(PO4)2·2H2O,"{""K"": 1.0, ""Fe"": 2.0, ""Nb"": 1.0, ""O"": 12.0, ""P"": 2.0, ""H"": 4.0}",501.662,#556B2F,orthorhombic,{22},4.049e-09
Olsacherite,Pb2(Se6+O4)(SO4),"{""Pb"": 2.0, ""Se"": 1.0, ""O"": 8.0, ""S"": 1.0}",653.423,#FFFFFF,orthorhombic,"{45,47}",3.475e-09
Olsenite,KFe4(PO4)3,"{""K"": 1.0, ""Fe"": 4.0, ""P"": 3.0, ""O"": 12.0}",547.388,#556B2F,orthorhombic,{},1e-07
Olshanskyite,Ca2[B3O3(OH)6]OH·3H2O,"{""Ca"": 2.0, ""B"": 3.0, ""O"": 13.0, ""H"": 13.0}",333.677,#FFFFFF,triclinic,{23},1.758794e-06
Olympite,LiNa5(PO4)2,"{""Li"": 1.0, ""Na"": 5.0, ""P"": 2.0, ""O"": 8.0}",311.83,#FFFFFF,orthorhombic,{35},1.377e-09
Omariniite,Cu8Fe2ZnGe2S12,"{""Cu"": 8.0, ""Fe"": 2.0, ""Zn"": 1.0, ""Ge"": 2.0, ""S"": 12.0}",1215.418,#DAA520,orthorhombic,{33},2.51e-10
Omeiite,OsAs2,"{""Os"": 1.0, ""As"": 2.0}",340.074,#808080,orthorhombic,"{6,33}",6.1328e-08
Ominelite,Fe2+Al3O2(BO3)(SiO4),"{""Fe"": 1.0, ""Al"": 3.0, ""O"": 9.0, ""B"": 1.0, ""Si"": 1.0}",319.677,#556B2F,orthorhombic,"{34,40}",9.422119e-06
Omongwaite,Na2Ca5(SO4)6·3H2O,"{""Na"": 2.0, ""Ca"": 5.0, ""S"": 6.0, ""O"": 27.0, ""H"": 6.0}",876.751,#FFFFFF,monoclinic,"{47,50,54}",4.59e-09
Omsite,Ni2Fe3+(OH)6[Sb(OH)6],"{""Ni"": 2.0, ""Fe"": 1.0, ""O"": 12.0, ""H"": 12.0, ""Sb"": 1.0}",499.075,#556B2F,hexagonal,{47},1.5015e-07
Ondrusite,CaCu4(AsO4)2(AsO3OH)2·10H2O,"{""Ca"": 1.0, ""Cu"": 4.0, ""As"": 4.0, ""O"": 26.0, ""H"": 22.0}",1032.1,#FFFFFF,triclinic,"{32,47}",1.74422e-07
Onoratoite,Sb8O11Cl2,"{""Sb"": 8.0, ""O"": 11.0, ""Cl"": 2.0}",1220.969,#A9A9A9,monoclinic,"{47,57}",3.54232e-07
Ootannite,Th4+2W6+4O16·5H2O,"{""Th"": 2.0, ""W"": 4.0, ""O"": 21.0, ""H"": 10.0}",1545.499,#FFFFFF,monoclinic,{},1e-06
Ophirite,Ca2Mg4[Zn2Mn3+2(H2O)2(Fe3+W9O34)2]·46H2O,"{""Ca"": 2.0, ""Mg"": 4.0, ""Zn"": 2.0, ""Mn"": 2.0, ""H"": 96.0, ""O"": 116.0, ""Fe"": 2.0, ""W"": 18.0}",5791.474,#556B2F,triclinic,{47},7.508e-09
Oppenheimerite,Na2(UO2)(SO4)2·3H2O,"{""Na"": 2.0, ""U"": 1.0, ""O"": 13.0, ""S"": 2.0, ""H"": 6.0}",562.165,#FFFFFF,triclinic,"{47,55}",3.761e-09
Ordonezite,ZnSb5+2O6,"{""Zn"": 1.0, ""Sb"": 2.0, ""O"": 6.0}",404.894,#A9A9A9,tetragonal,{47},1.5015e-07
Orebroite,Mn2+6(Sb5+Fe3+)(SiO4)2O6,"{""Mn"": 6.0, ""Sb"": 1.0, ""Fe"": 1.0, ""Si"": 2.0, ""O"": 14.0}",787.389,#556B2F,hexagonal,{32},1.214e-09
Oregonite,FeNi2As2,"{""Fe"": 1.0, ""Ni"": 2.0, ""As"": 2.0}",323.075,#7FFF00,hexagonal,"{26,33}",5.2547e-08
Oreillyite,Cr2N,"{""Cr"": 2.0, ""N"": 1.0}",117.999,#228B22,hexagonal,{51},7.8125e-08
Organovaite-Mn,K2MnNb4(Si4O12)2O4·5-7H2O,"{""K"": 2.0, ""Mn"": 1.0, ""Nb"": 4.0, ""Si"": 8.0, ""O"": 35.0, ""H"": 14.0}",1303.515,#FFFFFF,monoclinic,{35},6.89e-10
Orientite,Ca8Mn3+10(SiO4)3(Si3O10)3(OH)10·4H2O,"{""Ca"": 8.0, ""Mn"": 10.0, ""Si"": 12.0, ""O"": 56.0, ""H"": 18.0}",2121.112,#FFFFFF,orthorhombic,"{22,32}",3.238e-09
Orishchinite,Ni2P,"{""Ni"": 2.0, ""P"": 1.0}",148.36,#7FFF00,orthorhombic,{51},7.812e-09
Orlandiite,Pb3Cl4(Se4+O3)·H2O,"{""Pb"": 3.0, ""Cl"": 4.0, ""Se"": 1.0, ""O"": 4.0, ""H"": 2.0}",908.383,#FFFFFF,triclinic,{47},1.5015e-07
Orlovite,KLi2Ti(Si4O10)(OF),"{""K"": 1.0, ""Li"": 2.0, ""Ti"": 1.0, ""Si"": 4.0, ""O"": 11.0, ""F"": 1.0}",408.172,#FFFFFF,monoclinic,{34},8.87e-10
Orlymanite,Ca4Mn2+3Si8O20(OH)6·2H2O,"{""Ca"": 4.0, ""Mn"": 3.0, ""Si"": 8.0, ""O"": 28.0, ""H"": 10.0}",1007.858,#FFFFFF,hexagonal,{32},1.214e-09
Orpiment,As2S3,"{""As"": 2.0, ""S"": 3.0}",246.024,#FFD700,monoclinic,"{11,12,14,33,47,49,50,54}",1.7823e-08
Orschallite,Ca3(S4+O3)2(SO4)·12H2O,"{""Ca"": 3.0, ""S"": 3.0, ""O"": 22.0, ""H"": 24.0}",592.584,#FFFFFF,hexagonal,"{45,47,56}",4.873e-09
Orthobrannerite,U4+U6+Ti4O12(OH)2,"{""U"": 2.0, ""Ti"": 4.0, ""O"": 14.0, ""H"": 2.0}",893.53,#FFFFFF,orthorhombic,"{35,47}",4.9177e-08
Orthoclase,K(AlSi3O8),"{""K"": 1.0, ""Al"": 1.0, ""Si"": 3.0, ""O"": 8.0}",278.327,#FFFFFF,triclinic,"{9,17,19,22,23,24,26,34,35,40}",6.5310227e-05
Orthocuproplatinum,Pt3Cu,"{""Pt"": 3.0, ""Cu"": 1.0}",648.786,#00BFFF,orthorhombic,{26},4e-08
Orthogersdorffite,NiAsS,"{""Ni"": 1.0, ""As"": 1.0, ""S"": 1.0}",165.675,#FFD700,orthorhombic,"{33,37}",1.732e-09
Orthominasragrite,V4+O(SO4)·5H2O,"{""V"": 1.0, ""O"": 10.0, ""S"": 1.0, ""H"": 10.0}",253.072,#FFFFFF,orthorhombic,"{47,53}",4.712e-09
Orthopinakiolite,Mg2Mn3+O2(BO3),"{""Mg"": 2.0, ""Mn"": 1.0, ""O"": 5.0, ""B"": 1.0}",194.353,#FFFFFF,orthorhombic,"{31,32,47}",1.0126e-08
Orthoserpierite,CaCu4(SO4)2(OH)6·3H2O,"{""Ca"": 1.0, ""Cu"": 4.0, ""S"": 2.0, ""O"": 17.0, ""H"": 12.0}",642.461,#FFFFFF,orthorhombic,"{47,55}",3.761e-09
Orthowalpurgite,(UO2)Bi4O4(AsO4)2·2H2O,"{""U"": 1.0, ""O"": 16.0, ""Bi"": 4.0, ""As"": 2.0, ""H"": 4.0}",1483.81,#FFFFFF,orthorhombic,{47},1.5015e-07
Osakaite,Zn4(SO4)(OH)6·5H2O,"{""Zn"": 4.0, ""S"": 1.0, ""O"": 15.0, ""H"": 16.0}",549.693,#FFFFFF,triclinic,{47},3.003e-09
Osarizawaite,Pb(Al2Cu2+)(SO4)2(OH)6,"{""Pb"": 1.0, ""Al"": 2.0, ""Cu"": 1.0, ""S"": 2.0, ""O"": 14.0, ""H"": 6.0}",618.864,#FFFFFF,hexagonal,{47},3.003e-09
Osarsite,OsAsS,"{""Os"": 1.0, ""As"": 1.0, ""S"": 1.0}",297.212,#FFD700,monoclinic,"{26,33,37}",2.532e-09
Osbornite,TiN,"{""Ti"": 1.0, ""N"": 1.0}",61.874,#FFFFFF,cubic,"{3,5,7,36,38}",1.56892e-07
Oscarkempffite,Ag10Pb4(Sb17Bi9)S48,"{""Ag"": 10.0, ""Pb"": 4.0, ""Sb"": 17.0, ""Bi"": 9.0, ""S"": 48.0}",7397.12,#708090,orthorhombic,{33},2.51e-10
Oskarssonite,AlF3,"{""Al"": 1.0, ""F"": 3.0}",83.976,#FFFFFF,hexagonal,"{36,45}",2.897e-09
Osmium,Os,"{""Os"": 1.0}",190.23,#FFFFFF,hexagonal,"{1,3,26,36,37,38}",9.0391e-07
Osumilite,KFe2(Al5Si10)O30,"{""K"": 1.0, ""Fe"": 2.0, ""Al"": 5.0, ""Si"": 10.0, ""O"": 30.0}",1046.518,#556B2F,hexagonal,"{9,10,20,26,40,50,54}",1.3885444e-05
Osumilite-(Mg),KMg2Al3(Al2Si10)O30,"{""K"": 1.0, ""Mg"": 2.0, ""Al"": 5.0, ""Si"": 10.0, ""O"": 30.0}",983.438,#FFFFFF,hexagonal,"{20,31}",3.25406e-07
Oswaldpeetersite,(UO2)2(CO3)(OH)2·4H2O,"{""U"": 2.0, ""O"": 13.0, ""C"": 1.0, ""H"": 10.0}",706.138,#FFFFFF,monoclinic,"{47,53}",2.3562e-07
Otavite,Cd(CO3),"{""Cd"": 1.0, ""C"": 1.0, ""O"": 3.0}",172.418,#FFFFFF,hexagonal,{47},1.5015e-07
Otjisumeite,PbGe4O9,"{""Pb"": 1.0, ""Ge"": 4.0, ""O"": 9.0}",641.711,#FFFFFF,triclinic,{47},1.5015e-07
Ottemannite,Sn2S3,"{""Sn"": 2.0, ""S"": 3.0}",333.6,#A9A9A9,orthorhombic,{33},2.51e-10
Ottensite,Na3(Sb2O3)3(SbS3)·3H2O,"{""Na"": 3.0, ""Sb"": 7.0, ""O"": 12.0, ""S"": 3.0, ""H"": 6.0}",1215.506,#FFFFFF,hexagonal,{47},3.003e-09
Ottoite,Pb2TeO5,"{""Pb"": 2.0, ""Te"": 1.0, ""O"": 5.0}",621.995,#FFFFFF,monoclinic,{47},1.5015e-07
Ottrelite,Mn2+Al2O(SiO4)(OH)2,"{""Mn"": 1.0, ""Al"": 2.0, ""O"": 7.0, ""Si"": 1.0, ""H"": 2.0}",250.996,#FFFFFF,monoclinic,"{23,39,40}",5.65302e-07
Otwayite,Ni2(CO3)(OH)2·H2O,"{""Ni"": 2.0, ""C"": 1.0, ""O"": 6.0, ""H"": 4.0}",229.423,#FFFFFF,orthorhombic,{47},1.5015e-07
Oulankaite,Pd5Cu4SnTe2S2,"{""Pd"": 5.0, ""Cu"": 4.0, ""Sn"": 1.0, ""Te"": 2.0, ""S"": 2.0}",1224.314,#A9A9A9,tetragonal,"{33,37}",1.732e-09
Ourayite,Ag3Pb4Bi5S13,"{""Ag"": 3.0, ""Pb"": 4.0, ""Bi"": 5.0, ""S"": 13.0}",2614.09,#708090,orthorhombic,{33},2.51e-10
Oursinite,Co(UO2)2(SiO3OH)2·6H2O,"{""Co"": 1.0, ""U"": 2.0, ""O"": 18.0, ""Si"": 2.0, ""H"": 14.0}",893.257,#FFFFFF,orthorhombic,{47},1.5015e-07
Ovamboite,Cu10Fe3WGe3S16,"{""Cu"": 10.0, ""Fe"": 3.0, ""W"": 1.0, ""Ge"": 3.0, ""S"": 16.0}",1717.685,#DAA520,cubic,{33},2.51e-10
Overite,CaMgAl(PO4)2(OH)·4H2O,"{""Ca"": 1.0, ""Mg"": 1.0, ""Al"": 1.0, ""P"": 2.0, ""O"": 13.0, ""H"": 9.0}",370.372,#FFFFFF,orthorhombic,"{21,22}",1.6707e-08
Owyheeite,Ag3Pb10Sb11S28,"{""Ag"": 3.0, ""Pb"": 10.0, ""Sb"": 11.0, ""S"": 28.0}",4632.65,#708090,monoclinic,{33},2.51e-10
Oxammite,(NH4)2(C2O4)·H2O,"{""N"": 2.0, ""H"": 10.0, ""C"": 2.0, ""O"": 5.0}",142.111,#FFFFFF,orthorhombic,"{52,53}",2.24359e-07
Oxo-magnesio-hastingsite,NaCa2(Mg2Fe3+3)(Si6Al2)O22O2,"{""Na"": 1.0, ""Ca"": 2.0, ""Mg"": 2.0, ""Fe"": 3.0, ""Si"": 6.0, ""Al"": 2.0, ""O"": 24.0}",925.741,#556B2F,monoclinic,{47},1.95195e-07
Oxo-mangani-leakeite,NaNa2(Mn3+4Li)Si8O22O2,"{""Na"": 3.0, ""Mn"": 4.0, ""Li"": 1.0, ""Si"": 8.0, ""O"": 24.0}",904.318,#FFFFFF,monoclinic,{32},1.214e-09
Oxycalciomicrolite,Ca2Ta2O7,"{""Ca"": 2.0, ""Ta"": 2.0, ""O"": 7.0}",554.049,#FFFFFF,cubic,{34},1.773e-08
Oxycalciopyrochlore,Ca2Nb2O6O,"{""Ca"": 2.0, ""Nb"": 2.0, ""O"": 7.0}",377.961,#FFFFFF,cubic,"{34,36}",5.2095e-08
Oxycalcioromeite,Ca2Sb5+2O7,"{""Ca"": 2.0, ""Sb"": 2.0, ""O"": 7.0}",435.669,#A9A9A9,cubic,{47},1.5015e-07
Oxy-chromium-dravite,NaCr3(Cr4Mg2)(Si6O18)(BO3)3(OH)3O,"{""Na"": 1.0, ""Cr"": 7.0, ""Mg"": 2.0, ""Si"": 6.0, ""O"": 31.0, ""B"": 3.0, ""H"": 3.0}",1135.505,#FFFFFF,hexagonal,"{23,31}",1.786884e-06
Oxy-dravite,Na(Al2Mg)(Al5Mg)(Si6O18)(BO3)3(OH)3O,"{""Na"": 1.0, ""Al"": 7.0, ""Mg"": 2.0, ""Si"": 6.0, ""O"": 31.0, ""B"": 3.0, ""H"": 3.0}",960.407,#FFFFFF,hexagonal,"{19,23,26,34,40}",4.6185948e-05
Oxykinoshitalite,BaMg2Ti4+O2(Si2Al2)O10,"{""Ba"": 1.0, ""Mg"": 2.0, ""Ti"": 1.0, ""O"": 12.0, ""Si"": 2.0, ""Al"": 2.0}",535.929,#FFFFFF,monoclinic,{35},4.132e-09
Oxyplumbopyrochlore,Pb2Nb2O6O,"{""Pb"": 2.0, ""Nb"": 2.0, ""O"": 7.0}",712.205,#FFFFFF,cubic,{},1e-06
Oxyplumboromeite,Pb2Sb2O7,"{""Pb"": 2.0, ""Sb"": 2.0, ""O"": 7.0}",769.913,#A9A9A9,cubic,{47},1.5015e-07
Oxy-schorl,Na(Fe2+2Al)Al6(Si6O18)(BO3)3(OH)3O,"{""Na"": 1.0, ""Fe"": 2.0, ""Al"": 7.0, ""Si"": 6.0, ""O"": 31.0, ""B"": 3.0, ""H"": 3.0}",1023.487,#556B2F,hexagonal,"{19,23,26,34,40}",4.6185948e-05
Oxystannomicrolite,Sn2Ta2O6O,"{""Sn"": 2.0, ""Ta"": 2.0, ""O"": 7.0}",711.313,#FFFFFF,cubic,{34},1.773e-08
Oxy-vanadium-dravite,NaV3(V4Mg2)(Si6O18)(BO3)3(OH)3O,"{""Na"": 1.0, ""V"": 7.0, ""Mg"": 2.0, ""Si"": 6.0, ""O"": 31.0, ""B"": 3.0, ""H"": 3.0}",1128.127,#FFFFFF,hexagonal,"{23,31}",1.786884e-06
Oxyvanite,V3+2V4+O5,"{""V"": 3.0, ""O"": 5.0}",232.821,#FFFFFF,monoclinic,{53},8.547e-08
Oxyyttrobetafite-(Y),Y2Ti2O6O,"{""Y"": 2.0, ""Ti"": 2.0, ""O"": 7.0}",385.539,#FFFFFF,cubic,{34},5.319e-09
Oyelite,Ca5BSi4O13(OH)3·4H2O,"{""Ca"": 5.0, ""B"": 1.0, ""Si"": 4.0, ""O"": 20.0, ""H"": 11.0}",654.608,#FFFFFF,orthorhombic,"{23,47,51}",1.987069e-06
Oyonite,Ag3Mn2Pb4Sb7As4S24,"{""Ag"": 3.0, ""Mn"": 2.0, ""Pb"": 4.0, ""Sb"": 7.0, ""As"": 4.0, ""S"": 24.0}",3183.734,#708090,monoclinic,{33},2.51e-10
Ozernovskite,Fe3+4(Te4+O4)(Te4+O3)4·7H2O,"{""Fe"": 4.0, ""Te"": 5.0, ""O"": 23.0, ""H"": 14.0}",1243.469,#556B2F,monoclinic,{47},1.5015e-07
Ozerovaite,Na2KAl3(AsO4)4,"{""Na"": 2.0, ""K"": 1.0, ""Al"": 3.0, ""As"": 4.0, ""O"": 16.0}",721.696,#FFFFFF,orthorhombic,{45},2.3585e-08
Paakkonenite,Sb2AsS2,"{""Sb"": 2.0, ""As"": 1.0, ""S"": 2.0}",382.562,#FFD700,monoclinic,{33},2.51e-10
Pabellondepicaite,Cu2+2(N3C2H2)2(NH3)2(NO3)Cl·2H2O,"{""Cu"": 2.0, ""N"": 9.0, ""C"": 4.0, ""H"": 14.0, ""O"": 5.0, ""Cl"": 1.0}",430.756,#FFFFFF,orthorhombic,{},1e-06
Pabstite,BaSnSi3O9,"{""Ba"": 1.0, ""Sn"": 1.0, ""Si"": 3.0, ""O"": 9.0}",484.286,#FFFFFF,hexagonal,"{26,31}",6.809e-08
Paceite,CaCu(CH3COO)4·6H2O,"{""Ca"": 1.0, ""Cu"": 1.0, ""C"": 8.0, ""H"": 24.0, ""O"": 14.0}",447.89,#FFFFFF,tetragonal,"{53,55}",1.23349e-07
Pachnolite,NaCaAlF6·H2O,"{""Na"": 1.0, ""Ca"": 1.0, ""Al"": 1.0, ""F"": 6.0, ""H"": 2.0, ""O"": 1.0}",222.053,#FFFFFF,monoclinic,"{34,47}",8.394e-09
Packratite,Ca11(As3+V5+10V4+2As5+6O51)2·83H2O,"{""Ca"": 11.0, ""As"": 14.0, ""V"": 24.0, ""O"": 185.0, ""H"": 166.0}",5839.517,#FFFFFF,triclinic,{47},1.5015e-07
Paddlewheelite,MgCa5Cu2(UO2)4(CO3)12(H2O)33,"{""Mg"": 1.0, ""Ca"": 5.0, ""Cu"": 2.0, ""U"": 4.0, ""O"": 77.0, ""C"": 12.0, ""H"": 66.0}",2746.49,#FFFFFF,monoclinic,{47},1.5015e-07
Padmaite,PdBiSe,"{""Pd"": 1.0, ""Bi"": 1.0, ""Se"": 1.0}",394.371,#D2B48C,cubic,{33},1.2547e-08
Paganoite,NiBi3+O(AsO4),"{""Ni"": 1.0, ""Bi"": 1.0, ""O"": 5.0, ""As"": 1.0}",422.59,#FFFFFF,triclinic,{47},1.5015e-07
Painite,CaZrAl9O15(BO3),"{""Ca"": 1.0, ""Zr"": 1.0, ""Al"": 9.0, ""O"": 18.0, ""B"": 1.0}",672.932,#FFFFFF,hexagonal,"{23,26}",1.798794e-06
Pakhomovskyite,Co3(PO4)2·8H2O,"{""Co"": 3.0, ""P"": 2.0, ""O"": 16.0, ""H"": 16.0}",510.859,#FFFFFF,monoclinic,"{22,36}",7.485e-09
Palenzonaite,(NaCa2)Mn2+2(VO4)3,"{""Na"": 1.0, ""Ca"": 2.0, ""Mn"": 2.0, ""V"": 3.0, ""O"": 12.0}",557.836,#FFFFFF,cubic,{32},1.214e-09
Palermoite,Li2SrAl4(PO4)4(OH)4,"{""Li"": 2.0, ""Sr"": 1.0, ""Al"": 4.0, ""P"": 4.0, ""O"": 20.0, ""H"": 4.0}",657.336,#FFFFFF,orthorhombic,"{34,47}",1.6788e-08
Palladinite,PdO,"{""Pd"": 1.0, ""O"": 1.0}",122.419,#FFFFFF,tetragonal,{47},1.5015e-07
Palladium,Pd,"{""Pd"": 1.0}",106.42,#FFFFFF,cubic,"{26,36,37,38}",2.41031e-07
Palladoarsenide,Pd2As,"{""Pd"": 2.0, ""As"": 1.0}",287.762,#808080,monoclinic,"{26,33,37}",1.26621e-07
Palladodymite,Pd2As,"{""Pd"": 2.0, ""As"": 1.0}",287.762,#808080,orthorhombic,"{26,33,37}",1.26621e-07
Palladogermanide,Pd2Ge,"{""Pd"": 2.0, ""Ge"": 1.0}",285.47,#FFFFFF,hexagonal,"{26,37}",1.14074e-07
Palladosilicide,Pd2Si,"{""Pd"": 2.0, ""Si"": 1.0}",240.925,#FFFFFF,hexagonal,"{7,37}",1.55375e-07
Palladothallite,Pd3Tl,"{""Pd"": 3.0, ""Tl"": 1.0}",523.64,#FFFFFF,tetragonal,{37},7.4074e-08
Palladseite,Pd17Se15,"{""Pd"": 17.0, ""Se"": 15.0}",2993.705,#FFFFFF,cubic,"{26,33}",5.2547e-08
Palmierite,K2Pb(SO4)2,"{""K"": 2.0, ""Pb"": 1.0, ""S"": 2.0, ""O"": 8.0}",477.508,#FFFFFF,hexagonal,"{45,47,56}",4.873e-09
Pampaloite,AuSbTe,"{""Au"": 1.0, ""Sb"": 1.0, ""Te"": 1.0}",446.33,#FFD700,monoclinic,{33},1.2547e-08
Panasqueiraite,CaMg(PO4)(OH),"{""Ca"": 1.0, ""Mg"": 1.0, ""P"": 1.0, ""O"": 5.0, ""H"": 1.0}",176.36,#FFFFFF,monoclinic,"{23,34}",1.77652e-07
Pandoraite-Ba,BaV4+5V5+2O16·3H2O,"{""Ba"": 1.0, ""V"": 7.0, ""O"": 19.0, ""H"": 6.0}",803.953,#FFFFFF,monoclinic,{47},1.5015e-07
Pandoraite-Ca,CaV4+5V5+2O16·3H2O,"{""Ca"": 1.0, ""V"": 7.0, ""O"": 19.0, ""H"": 6.0}",706.701,#FFFFFF,monoclinic,{47},1.5015e-07
Panichiite,(NH4)2SnCl6,"{""N"": 2.0, ""H"": 8.0, ""Sn"": 1.0, ""Cl"": 6.0}",367.488,#FFFFFF,cubic,"{45,50,54}",1.0295e-07
Panskyite,Pd9Ag2Pb2S4,"{""Pd"": 9.0, ""Ag"": 2.0, ""Pb"": 2.0, ""S"": 4.0}",1716.16,#708090,tetragonal,{33},2.51e-10
Pansnerite,K3Na3Fe3+6(AsO4)8,"{""K"": 3.0, ""Na"": 3.0, ""Fe"": 6.0, ""As"": 8.0, ""O"": 32.0}",1632.678,#556B2F,orthorhombic,{45},2.3585e-08
Panunzite,K3Na(AlSiO4)4,"{""K"": 3.0, ""Na"": 1.0, ""Al"": 4.0, ""Si"": 4.0, ""O"": 16.0}",616.536,#FFFFFF,hexagonal,"{9,35}",1.2952e-07
Paolovite,Pd2Sn,"{""Pd"": 2.0, ""Sn"": 1.0}",331.55,#FFFFFF,orthorhombic,"{7,26,33,36,37}",2.42286e-07
Papagoite,CaCuAlSi2O6(OH)3,"{""Ca"": 1.0, ""Cu"": 1.0, ""Al"": 1.0, ""Si"": 2.0, ""O"": 9.0, ""H"": 3.0}",333.791,#FFFFFF,monoclinic,{23},1.758794e-06
Papikeite,NaFe2+2(Mg3Al2)(Si5Al3)O22(OH)2,"{""Na"": 1.0, ""Fe"": 2.0, ""Mg"": 3.0, ""Al"": 5.0, ""Si"": 5.0, ""O"": 24.0, ""H"": 2.0}",868.922,#556B2F,orthorhombic,{},1.3e-06
Para-alumohydrocalcite,CaAl2(CO3)2(OH)4·6H2O,"{""Ca"": 1.0, ""Al"": 2.0, ""C"": 2.0, ""O"": 16.0, ""H"": 16.0}",390.176,#FFFFFF,unknown,{47},1.5015e-07
Paraberzeliite,NaCaCaMg2(AsO4)3,"{""Na"": 1.0, ""Ca"": 2.0, ""Mg"": 2.0, ""As"": 3.0, ""O"": 12.0}",568.51,#FFFFFF,monoclinic,{45},2.3585e-08
Parabrandtite,Ca2Mn2+(AsO4)2·2H2O,"{""Ca"": 2.0, ""Mn"": 1.0, ""As"": 2.0, ""O"": 10.0, ""H"": 4.0}",448.96,#FFFFFF,triclinic,"{32,46}",1.0829e-08
Parabutlerite,Fe3+(SO4)(OH)·2H2O,"{""Fe"": 1.0, ""S"": 1.0, ""O"": 7.0, ""H"": 5.0}",204.938,#556B2F,orthorhombic,"{47,55}",3.761e-09
Paracelsian,Ba(Al2Si2O8),"{""Ba"": 1.0, ""Al"": 2.0, ""Si"": 2.0, ""O"": 8.0}",375.456,#FFFFFF,orthorhombic,{32},2.4272e-08
Paracoquimbite,Fe3+4(SO4)6(H2O)12·6H2O,"{""Fe"": 4.0, ""S"": 6.0, ""O"": 42.0, ""H"": 36.0}",1123.986,#556B2F,hexagonal,"{46,47,50}",7.582e-09
Paracostibite,CoSbS,"{""Co"": 1.0, ""Sb"": 1.0, ""S"": 1.0}",212.753,#A9A9A9,orthorhombic,{33},2.51e-10
Paradamite,Zn2(AsO4)(OH),"{""Zn"": 2.0, ""As"": 1.0, ""O"": 5.0, ""H"": 1.0}",286.685,#FFFFFF,triclinic,"{47,56}",2.2008e-07
Paradimorphite,As4S3,"{""As"": 4.0, ""S"": 3.0}",395.868,#FFD700,orthorhombic,{11},5.556e-09
Paradsasvarite,Zn2(CO3)(OH)2,"{""Zn"": 2.0, ""C"": 1.0, ""O"": 5.0, ""H"": 2.0}",224.782,#FFFFFF,monoclinic,{47},1.5015e-07
Paraershovite,Na3K3Fe3+2(Si4O10OH)2(OH)2(H2O)4,"{""Na"": 3.0, ""K"": 3.0, ""Fe"": 2.0, ""Si"": 8.0, ""O"": 28.0, ""H"": 12.0}",982.702,#556B2F,triclinic,{35},1.9284e-08
Parafiniukite,Ca2Mn3(PO4)3Cl,"{""Ca"": 2.0, ""Mn"": 3.0, ""P"": 3.0, ""O"": 12.0, ""Cl"": 1.0}",565.33,#FFFFFF,hexagonal,{34},8.87e-10
Parafransoletite,Ca3Be2(PO4)2(PO3OH)2·4H2O,"{""Ca"": 3.0, ""Be"": 2.0, ""P"": 4.0, ""O"": 20.0, ""H"": 10.0}",592.2144,#FFFFFF,triclinic,{22},4.049e-09
Parageorgbokiite,Cu5O2(SeO3)2Cl2,"{""Cu"": 5.0, ""O"": 8.0, ""Se"": 2.0, ""Cl"": 2.0}",674.564,#FFFFFF,monoclinic,{45},2.3585e-08
Paragersdorffite,NiAsS,"{""Ni"": 1.0, ""As"": 1.0, ""S"": 1.0}",165.675,#FFD700,cubic,"{33,37}",1.732e-09
Paragonite,NaAl2(Si3Al)O10(OH)2,"{""Na"": 1.0, ""Al"": 3.0, ""Si"": 3.0, ""O"": 12.0, ""H"": 2.0}",382.195,#FFFFFF,monoclinic,"{6,23,39,40}",2.8387051e-05
Paraguanajuatite,Bi2Se3,"{""Bi"": 2.0, ""Se"": 3.0}",654.873,#D2B48C,hexagonal,"{31,33}",4.0637e-08
Parahibbingite,Fe2+2(OH)3Cl,"{""Fe"": 2.0, ""O"": 3.0, ""H"": 3.0, ""Cl"": 1.0}",198.161,#556B2F,hexagonal,{16},1.20482e-07
Parahopeite,Zn3(PO4)2·4H2O,"{""Zn"": 3.0, ""P"": 2.0, ""O"": 12.0, ""H"": 8.0}",458.14,#FFFFFF,triclinic,{47},1.5015e-08
Parakeldyshite,Na2ZrSi2O7,"{""Na"": 2.0, ""Zr"": 1.0, ""Si"": 2.0, ""O"": 7.0}",305.367,#FFFFFF,triclinic,{35},1.3774e-08
Paralammerite,Cu3(AsO4)2,"{""Cu"": 3.0, ""As"": 2.0, ""O"": 8.0}",468.474,#00BFFF,monoclinic,{45},2.3585e-08
Paralaurionite,PbCl(OH),"{""Pb"": 1.0, ""Cl"": 1.0, ""O"": 1.0, ""H"": 1.0}",259.657,#FFFFFF,monoclinic,"{23,56,57}",2.032806e-06
Paralstonite,BaCa(CO3)2,"{""Ba"": 1.0, ""Ca"": 1.0, ""C"": 2.0, ""O"": 6.0}",297.424,#FFFFFF,hexagonal,{23},1.758794e-06