name,formula,elements,density,color,crystal_system,dna
Rinkite-(Y),Ca2(CaY)Na(NaCa)Ti(Si2O7)2(OF)F2,"{""Ca"": 4.0, ""Y"": 1.0, ""Na"": 2.0, ""Ti"": 1.0, ""Si"": 4.0, ""O"": 15.0, ""F"": 3.0}",752.44,#FFFFFF,monoclinic,"{""system"": ""monoclinic"", ""scale"": [0.7, 1.0, 1.3], ""optical"": {""transparent"": 1, ""refraction"": 1.5, ""birefringence"": 0.01}}"
Rinneite,K3NaFe2+Cl6,"{""K"": 3.0, ""Na"": 1.0, ""Fe"": 1.0, ""Cl"": 6.0}",408.84,#556B2F,hexagonal,"{""system"": ""hexagonal"", ""scale"": [1.0, 1.0, 1.6], ""optical"": {""transparent"": 0, ""refraction"": 0.0, ""birefringence"": 0.0}}"
Riomarinaite,Bi(SO4)(OH)·H2O,"{""Bi"": 1.0, ""S"": 1.0, ""O"": 6.0, ""H"": 3.0}",340.06,#FFFFFF,monoclinic,"{""system"": ""monoclinic"", ""scale"": [0.7, 1.0, 1.3], ""optical"": {""transparent"": 1, ""refraction"": 1.5, ""birefringence"": 0.01}}"
Riosecoite,Ca2Mg(AsO3OH)3(H2O)2,"{""Ca"": 2.0, ""Mg"": 1.0, ""As"": 3.0, ""O"": 14.0, ""H"": 7.0}",560.29,#FFFFFF,triclinic,"{""system"": ""triclinic"", ""scale"": [0.7, 1.0, 1.3], ""optical"": {""transparent"": 1, ""refraction"": 1.5, ""birefringence"": 0.01}}"
Riotintoite,Al(SO4)(OH)·3H2O,"{""Al"": 1.0, ""S"": 1.0, ""O"": 8.0, ""H"": 7.0}",194.1,#FFFFFF,triclinic,"{""system"": ""triclinic"", ""scale"": [0.7, 1.0, 1.3], ""optical"": {""transparent"": 1, ""refraction"": 1.5, ""birefringence"": 0.01}}"
Rivadavite,Na6Mg[B6O7(OH)6]4·10H2O,"{""Na"": 6.0, ""Mg"": 1.0, ""B"": 24.0, ""O"": 62.0, ""H"": 44.0}",1458.04,#FFFFFF,monoclinic,"{""system"": ""monoclinic"", ""scale"": [0.7, 1.0, 1.3], ""optical"": {""transparent"": 1, ""refraction"": 1.5, ""birefringence"": 0.01}}"
Riversideite,Ca5Si6O16(OH)2·2H2O,"{""Ca"": 5.0, ""Si"": 6.0, ""O"": 20.0, ""H"": 6.0}",694.99,#FFFFFF,,"{""system"": """", ""scale"": [1.0, 1.0, 1.0], ""optical"": {""transparent"": 1, ""refraction"": 1.5, ""birefringence"": 0.01}}"
Robinsonite,Pb4Sb6S13,"{""Pb"": 4.0, ""Sb"": 6.0, ""S"": 13.0}",1976.14,#708090,monoclinic,"{""system"": ""monoclinic"", ""scale"": [0.7, 1.0, 1.3], ""optical"": {""transparent"": 0, ""refraction"": 0.0, ""birefringence"": 0.0}}"
Rodalquilarite,H3Fe3+2(Te4+O3)4Cl,"{""H"": 3.0, ""Fe"": 2.0, ""Te"": 4.0, ""O"": 12.0, ""Cl"": 1.0}",852.57,#556B2F,triclinic,"{""system"": ""triclinic"", ""scale"": [0.7, 1.0, 1.3], ""optical"": {""transparent"": 0, ""refraction"": 0.0, ""birefringence"": 0.0}}"
Rodolicoite,Fe3+(PO4),"{""Fe"": 1.0, ""P"": 1.0, ""O"": 4.0}",150.82,#8B4513,hexagonal,"{""system"": ""hexagonal"", ""scale"": [1.0, 1.0, 1.6], ""optical"": {""transparent"": 0, ""refraction"": 0.0, ""birefringence"": 0.0}}"
Roedderite,KNaMg2(Mg3Si12)O30,"{""K"": 1.0, ""Na"": 1.0, ""Mg"": 5.0, ""Si"": 12.0, ""O"": 30.0}",1000.72,#FFFFFF,hexagonal,"{""system"": ""hexagonal"", ""scale"": [1.0, 1.0, 1.6], ""optical"": {""transparent"": 1, ""refraction"": 1.5, ""birefringence"": 0.01}}"
Rogermitchellite,Na6Sr12Ba2Zr13Si39B6O123(OH)14·10H2O,"{""Na"": 6.0, ""Sr"": 12.0, ""Ba"": 2.0, ""Zr"": 13.0, ""Si"": 39.0, ""B"": 6.0, ""O"": 147.0, ""H"": 34.0}",6196.54,#FFFFFF,hexagonal,"{""system"": ""hexagonal"", ""scale"": [1.0, 1.0, 1.6], ""optical"": {""transparent"": 1, ""refraction"": 1.5, ""birefringence"": 0.01}}"
Rokuhnite,FeCl2·2H2O,"{""Fe"": 1.0, ""Cl"": 2.0, ""H"": 4.0, ""O"": 2.0}",162.78,#556B2F,monoclinic,"{""system"": ""monoclinic"", ""scale"": [0.7, 1.0, 1.3], ""optical"": {""transparent"": 0, ""refraction"": 0.0, ""birefringence"": 0.0}}"
Rollandite,Cu3(AsO4)2·4H2O,"{""Cu"": 3.0, ""As"": 2.0, ""O"": 12.0, ""H"": 8.0}",540.55,#FFFFFF,orthorhombic,"{""system"": ""orthorhombic"", ""scale"": [0.8, 1.0, 1.2], ""optical"": {""transparent"": 1, ""refraction"": 1.5, ""birefringence"": 0.01}}"
Romanorlovite,K11Cu9Cl25(OH)4·2H2O,"{""K"": 11.0, ""Cu"": 9.0, ""Cl"": 25.0, ""O"": 6.0, ""H"": 8.0}",1992.36,#FFFFFF,tetragonal,"{""system"": ""tetragonal"", ""scale"": [1.0, 1.0, 1.4], ""optical"": {""transparent"": 1, ""refraction"": 1.5, ""birefringence"": 0.01}}"
Romerite,Fe2+Fe3+2(SO4)4·14H2O,"{""Fe"": 3.0, ""S"": 4.0, ""O"": 30.0, ""H"": 28.0}",804.01,#556B2F,triclinic,"{""system"": ""triclinic"", ""scale"": [0.7, 1.0, 1.3], ""optical"": {""transparent"": 0, ""refraction"": 0.0, ""birefringence"": 0.0}}"
Rondorfite,Ca8Mg(SiO4)4Cl2,"{""Ca"": 8.0, ""Mg"": 1.0, ""Si"": 4.0, ""O"": 16.0, ""Cl"": 2.0}",784.21,#FFFFFF,cubic,"{""system"": ""cubic"", ""scale"": [1.0, 1.0, 1.0], ""optical"": {""transparent"": 1, ""refraction"": 1.5, ""birefringence"": 0.0}}"
Rongibbsite,Pb2(Si4Al)O11(OH),"{""Pb"": 2.0, ""Si"": 4.0, ""Al"": 1.0, ""O"": 12.0, ""H"": 1.0}",746.75,#FFFFFF,monoclinic,"{""system"": ""monoclinic"", ""scale"": [0.7, 1.0, 1.3], ""optical"": {""transparent"": 1, ""refraction"": 1.5, ""birefringence"": 0.01}}"
Ronpetersonite,BaWO4,"{""Ba"": 1.0, ""W"": 1.0, ""O"": 4.0}",385.17,#FFFFFF,tetragonal,"{""system"": ""tetragonal"", ""scale"": [1.0, 1.0, 1.4], ""optical"": {""transparent"": 1, ""refraction"": 1.5, ""birefringence"": 0.01}}"
Rontgenite-(Ce),Ca2Ce3(CO3)5F3,"{""Ca"": 2.0, ""Ce"": 3.0, ""C"": 5.0, ""O"": 15.0, ""F"": 3.0}",857.57,#FFFFFF,hexagonal,"{""system"": ""hexagonal"", ""scale"": [1.0, 1.0, 1.6], ""optical"": {""transparent"": 1, ""refraction"": 1.5, ""birefringence"": 0.01}}"
Rooseveltite,Bi(AsO4),"{""Bi"": 1.0, ""As"": 1.0, ""O"": 4.0}",347.9,#808080,monoclinic,"{""system"": ""monoclinic"", ""scale"": [0.7, 1.0, 1.3], ""optical"": {""transparent"": 0, ""refraction"": 0.0, ""birefringence"": 0.0}}"
Rorisite,CaClF,"{""Ca"": 1.0, ""Cl"": 1.0, ""F"": 1.0}",94.53,#FFFFFF,tetragonal,"{""system"": ""tetragonal"", ""scale"": [1.0, 1.0, 1.4], ""optical"": {""transparent"": 1, ""refraction"": 1.5, ""birefringence"": 0.01}}"
Roscoelite,KV3+2(Si3Al)O10(OH)2,"{""K"": 1.0, ""V"": 2.0, ""Si"": 3.0, ""Al"": 1.0, ""O"": 12.0, ""H"": 2.0}",446.25,#FFFFFF,,"{""system"": """", ""scale"": [1.0, 1.0, 1.0], ""optical"": {""transparent"": 1, ""refraction"": 1.5, ""birefringence"": 0.01}}"
Roselite,Ca2Co(AsO4)2·2H2O,"{""Ca"": 2.0, ""Co"": 1.0, ""As"": 2.0, ""O"": 10.0, ""H"": 4.0}",452.96,#FFFFFF,monoclinic,"{""system"": ""monoclinic"", ""scale"": [0.7, 1.0, 1.3], ""optical"": {""transparent"": 1, ""refraction"": 1.5, ""birefringence"": 0.01}}"
Rosenbuschite,Ca6Zr2Na6ZrTi(Si2O7)4(OF)2F4,"{""Ca"": 6.0, ""Zr"": 3.0, ""Na"": 6.0, ""Ti"": 1.0, ""Si"": 8.0, ""O"": 30.0, ""F"": 6.0}",1518.67,#FFFFFF,triclinic,"{""system"": ""triclinic"", ""scale"": [0.7, 1.0, 1.3], ""optical"": {""transparent"": 1, ""refraction"": 1.5, ""birefringence"": 0.01}}"
Rosenhahnite,Ca3Si3O8(OH)2,"{""Ca"": 3.0, ""Si"": 3.0, ""O"": 10.0, ""H"": 2.0}",366.53,#FFFFFF,triclinic,"{""system"": ""triclinic"", ""scale"": [0.7, 1.0, 1.3], ""optical"": {""transparent"": 1, ""refraction"": 1.5, ""birefringence"": 0.01}}"
Rosiaite,PbSb2O6,"{""Pb"": 1.0, ""Sb"": 2.0, ""O"": 6.0}",546.72,#A9A9A9,hexagonal,"{""system"": ""hexagonal"", ""scale"": [1.0, 1.0, 1.6], ""optical"": {""transparent"": 0, ""refraction"": 0.0, ""birefringence"": 0.0}}"
Rosickyite,S,"{""S"": 1.0}",32.06,#A9A9A9,monoclinic,"{""system"": ""monoclinic"", ""scale"": [0.7, 1.0, 1.3], ""optical"": {""transparent"": 0, ""refraction"": 0.0, ""birefringence"": 0.0}}"
Rossiantonite,Al3(PO4)(SO4)2(OH)2(H2O)10·4H2O,"{""Al"": 3.0, ""P"": 1.0, ""O"": 28.0, ""S"": 2.0, ""H"": 30.0}",654.27,#FFFFFF,triclinic,"{""system"": ""triclinic"", ""scale"": [0.7, 1.0, 1.3], ""optical"": {""transparent"": 1, ""refraction"": 1.5, ""birefringence"": 0.01}}"
Rossite,Ca(VO3)2·4H2O,"{""Ca"": 1.0, ""V"": 2.0, ""O"": 10.0, ""H"": 8.0}",310.02,#FFFFFF,triclinic,"{""system"": ""triclinic"", ""scale"": [0.7, 1.0, 1.3], ""optical"": {""transparent"": 1, ""refraction"": 1.5, ""birefringence"": 0.01}}"
Rosslerite,Mg(AsO3OH)·7H2O,"{""Mg"": 1.0, ""As"": 1.0, ""O"": 11.0, ""H"": 15.0}",290.35,#FFFFFF,monoclinic,"{""system"": ""monoclinic"", ""scale"": [0.7, 1.0, 1.3], ""optical"": {""transparent"": 1, ""refraction"": 1.5, ""birefringence"": 0.01}}"
Rossovskyite,Fe3+NbO4,"{""Fe"": 1.0, ""Nb"": 1.0, ""O"": 4.0}",212.76,#8B4513,monoclinic,"{""system"": ""monoclinic"", ""scale"": [0.7, 1.0, 1.3], ""optical"": {""transparent"": 0, ""refraction"": 0.0, ""birefringence"": 0.0}}"
Rostite,Al(SO4)(OH)·5H2O,"{""Al"": 1.0, ""S"": 1.0, ""O"": 10.0, ""H"": 11.0}",230.13,#FFFFFF,orthorhombic,"{""system"": ""orthorhombic"", ""scale"": [0.8, 1.0, 1.2], ""optical"": {""transparent"": 1, ""refraction"": 1.5, ""birefringence"": 0.01}}"
Rotemite,Ca4Cr2(OH)12Cl2·4H2O,"{""Ca"": 4.0, ""Cr"": 2.0, ""O"": 16.0, ""H"": 20.0, ""Cl"": 2.0}",611.38,#FFFFFF,hexagonal,"{""system"": ""hexagonal"", ""scale"": [1.0, 1.0, 1.6], ""optical"": {""transparent"": 1, ""refraction"": 1.5, ""birefringence"": 0.01}}"
Roterbarite,PdCuBiSe3,"{""Pd"": 1.0, ""Cu"": 1.0, ""Bi"": 1.0, ""Se"": 3.0}",615.83,#FFFFFF,orthorhombic,"{""system"": ""orthorhombic"", ""scale"": [0.8, 1.0, 1.2], ""optical"": {""transparent"": 1, ""refraction"": 1.5, ""birefringence"": 0.01}}"
Rouaite,Cu2(NO3)(OH)3,"{""Cu"": 2.0, ""N"": 1.0, ""O"": 6.0, ""H"": 3.0}",240.13,#FFFFFF,monoclinic,"{""system"": ""monoclinic"", ""scale"": [0.7, 1.0, 1.3], ""optical"": {""transparent"": 1, ""refraction"": 1.5, ""birefringence"": 0.01}}"
Roubaultite,Cu2O2(UO2)3(CO3)2(OH)2·4H2O,"{""Cu"": 2.0, ""O"": 20.0, ""U"": 3.0, ""C"": 2.0, ""H"": 10.0}",1195.29,#FFFFFF,triclinic,"{""system"": ""triclinic"", ""scale"": [0.7, 1.0, 1.3], ""optical"": {""transparent"": 1, ""refraction"": 1.5, ""birefringence"": 0.01}}"
Routhierite,TlCuHg2As2S6,"{""Tl"": 1.0, ""Cu"": 1.0, ""Hg"": 2.0, ""As"": 2.0, ""S"": 6.0}",1011.31,#FFD700,tetragonal,"{""system"": ""tetragonal"", ""scale"": [1.0, 1.0, 1.4], ""optical"": {""transparent"": 0, ""refraction"": 0.0, ""birefringence"": 0.0}}"
Rouvilleite,Na3Ca2(CO3)3F,"{""Na"": 3.0, ""Ca"": 2.0, ""C"": 3.0, ""O"": 9.0, ""F"": 1.0}",348.16,#FFFFFF,monoclinic,"{""system"": ""monoclinic"", ""scale"": [0.7, 1.0, 1.3], ""optical"": {""transparent"": 1, ""refraction"": 1.5, ""birefringence"": 0.01}}"
Rowlandite-(Y),Fe2+Y4(Si2O7)2F2,"{""Fe"": 1.0, ""Y"": 4.0, ""Si"": 4.0, ""O"": 14.0, ""F"": 2.0}",785.85,#556B2F,,"{""system"": """", ""scale"": [1.0, 1.0, 1.0], ""optical"": {""transparent"": 0, ""refraction"": 0.0, ""birefringence"": 0.0}}"
Roxbyite,Cu9S5,"{""Cu"": 9.0, ""S"": 5.0}",732.25,#A9A9A9,triclinic,"{""system"": ""triclinic"", ""scale"": [0.7, 1.0, 1.3], ""optical"": {""transparent"": 0, ""refraction"": 0.0, ""birefringence"": 0.0}}"
Roymillerite,Pb24Mg9(Si10O28)(CO3)10(BO3)(SiO4)(OH)13O5,"{""Pb"": 24.0, ""Mg"": 9.0, ""Si"": 11.0, ""O"": 83.0, ""C"": 10.0, ""B"": 1.0, ""H"": 13.0}",6972.59,#FFFFFF,triclinic,"{""system"": ""triclinic"", ""scale"": [0.7, 1.0, 1.3], ""optical"": {""transparent"": 1, ""refraction"": 1.5, ""birefringence"": 0.01}}"
Rozenite,Fe2+(SO4)·4H2O,"{""Fe"": 1.0, ""S"": 1.0, ""O"": 8.0, ""H"": 8.0}",223.97,#556B2F,monoclinic,"{""system"": ""monoclinic"", ""scale"": [0.7, 1.0, 1.3], ""optical"": {""transparent"": 0, ""refraction"": 0.0, ""birefringence"": 0.0}}"
Rruffite,Ca2Cu(AsO4)2·2H2O,"{""Ca"": 2.0, ""Cu"": 1.0, ""As"": 2.0, ""O"": 10.0, ""H"": 4.0}",457.58,#FFFFFF,monoclinic,"{""system"": ""monoclinic"", ""scale"": [0.7, 1.0, 1.3], ""optical"": {""transparent"": 1, ""refraction"": 1.5, ""birefringence"": 0.01}}"
Ruarsite,RuAsS,"{""Ru"": 1.0, ""As"": 1.0, ""S"": 1.0}",208.05,#FFD700,monoclinic,"{""system"": ""monoclinic"", ""scale"": [0.7, 1.0, 1.3], ""optical"": {""transparent"": 0, ""refraction"": 0.0, ""birefringence"": 0.0}}"
Rubicline,Rb(AlSi3O8),"{""Rb"": 1.0, ""Al"": 1.0, ""Si"": 3.0, ""O"": 8.0}",324.72,#FFFFFF,monoclinic,"{""system"": ""monoclinic"", ""scale"": [0.7, 1.0, 1.3], ""optical"": {""transparent"": 1, ""refraction"": 1.5, ""birefringence"": 0.01}}"
Rubinite,Ca3Ti3+2Si3O12,"{""Ca"": 3.0, ""Ti"": 2.0, ""Si"": 3.0, ""O"": 12.0}",492.25,#FFFFFF,cubic,"{""system"": ""cubic"", ""scale"": [1.0, 1.0, 1.0], ""optical"": {""transparent"": 1, ""refraction"": 1.5, ""birefringence"": 0.0}}"
Rucklidgeite,PbBi2Te4,"{""Pb"": 1.0, ""Bi"": 2.0, ""Te"": 4.0}",1135.56,#D2B48C,hexagonal,"{""system"": ""hexagonal"", ""scale"": [1.0, 1.0, 1.6], ""optical"": {""transparent"": 0, ""refraction"": 0.0, ""birefringence"": 0.0}}"
Rudabanyaite,(Ag2Hg2)(AsO4)Cl,"{""Ag"": 2.0, ""Hg"": 2.0, ""As"": 1.0, ""O"": 4.0, ""Cl"": 1.0}",791.29,#FFFFFF,cubic,"{""system"": ""cubic"", ""scale"": [1.0, 1.0, 1.0], ""optical"": {""transparent"": 1, ""refraction"": 1.5, ""birefringence"": 0.0}}"
Rudolfhermannite,Fe3+2(Te4+O3)3·H2O,"{""Fe"": 2.0, ""Te"": 3.0, ""O"": 10.0, ""H"": 2.0}",656.52,#556B2F,hexagonal,"{""system"": ""hexagonal"", ""scale"": [1.0, 1.0, 1.6], ""optical"": {""transparent"": 0, ""refraction"": 0.0, ""birefringence"": 0.0}}"
Ruitenbergite,Ca9B26O34(OH)24Cl4·13H2O,"{""Ca"": 9.0, ""B"": 26.0, ""O"": 71.0, ""H"": 50.0, ""Cl"": 4.0}",1969.98,#FFFFFF,monoclinic,"{""system"": ""monoclinic"", ""scale"": [0.7, 1.0, 1.3], ""optical"": {""transparent"": 1, ""refraction"": 1.5, ""birefringence"": 0.01}}"
Rumseyite,[Pb2OF]Cl,"{""Pb"": 2.0, ""O"": 1.0, ""F"": 1.0, ""Cl"": 1.0}",484.85,#FFFFFF,tetragonal,"{""system"": ""tetragonal"", ""scale"": [1.0, 1.0, 1.4], ""optical"": {""transparent"": 1, ""refraction"": 1.5, ""birefringence"": 0.01}}"
Rusinovite,Ca10(Si2O7)3Cl2,"{""Ca"": 10.0, ""Si"": 6.0, ""O"": 21.0, ""Cl"": 2.0}",976.24,#FFFFFF,orthorhombic,"{""system"": ""orthorhombic"", ""scale"": [0.8, 1.0, 1.2], ""optical"": {""transparent"": 1, ""refraction"": 1.5, ""birefringence"": 0.01}}"
Russellite,Bi2WO6,"{""Bi"": 2.0, ""W"": 1.0, ""O"": 6.0}",697.8,#D2B48C,tetragonal,"{""system"": ""tetragonal"", ""scale"": [1.0, 1.0, 1.4], ""optical"": {""transparent"": 0, ""refraction"": 0.0, ""birefringence"": 0.0}}"
Rustumite,Ca10(Si2O7)2(SiO4)(OH)2Cl2,"{""Ca"": 10.0, ""Si"": 5.0, ""O"": 20.0, ""H"": 2.0, ""Cl"": 2.0}",934.17,#FFFFFF,monoclinic,"{""system"": ""monoclinic"", ""scale"": [0.7, 1.0, 1.3], ""optical"": {""transparent"": 1, ""refraction"": 1.5, ""birefringence"": 0.01}}"
Ruthenium,Ru,"{""Ru"": 1.0}",101.07,#FFFFFF,hexagonal,"{""system"": ""hexagonal"", ""scale"": [1.0, 1.0, 1.6], ""optical"": {""transparent"": 1, ""refraction"": 1.5, ""birefringence"": 0.01}}"
Rutherfordine,(UO2)(CO3),"{""U"": 1.0, ""O"": 5.0, ""C"": 1.0}",330.04,#ADFF2F,orthorhombic,"{""system"": ""orthorhombic"", ""scale"": [0.8, 1.0, 1.2], ""optical"": {""transparent"": 0, ""refraction"": 0.0, ""birefringence"": 0.0}}"
Rutile,TiO2,"{""Ti"": 1.0, ""O"": 2.0}",79.87,#FFFFFF,tetragonal,"{""system"": ""tetragonal"", ""scale"": [1.0, 1.0, 1.4], ""optical"": {""transparent"": 1, ""refraction"": 1.5, ""birefringence"": 0.01}}"
Ryabchikovite,CuMgSi2O6,"{""Cu"": 1.0, ""Mg"": 1.0, ""Si"": 2.0, ""O"": 6.0}",240.04,#FFFFFF,monoclinic,"{""system"": ""monoclinic"", ""scale"": [0.7, 1.0, 1.3], ""optical"": {""transparent"": 1, ""refraction"": 1.5, ""birefringence"": 0.01}}"
Rynersonite,CaTa2O6,"{""Ca"": 1.0, ""Ta"": 2.0, ""O"": 6.0}",497.98,#FFFFFF,orthorhombic,"{""system"": ""orthorhombic"", ""scale"": [0.8, 1.0, 1.2], ""optical"": {""transparent"": 1, ""refraction"": 1.5, ""birefringence"": 0.01}}"
Sabatierite,Cu6TlSe4,"{""Cu"": 6.0, ""Tl"": 1.0, ""Se"": 4.0}",901.52,#00BFFF,tetragonal,"{""system"": ""tetragonal"", ""scale"": [1.0, 1.0, 1.4], ""optical"": {""transparent"": 0, ""refraction"": 0.0, ""birefringence"": 0.0}}"
Sabieite,(NH4)Fe3+(SO4)2,"{""N"": 1.0, ""H"": 4.0, ""Fe"": 1.0, ""S"": 2.0, ""O"": 8.0}",266.01,#556B2F,hexagonal,"{""system"": ""hexagonal"", ""scale"": [1.0, 1.0, 1.6], ""optical"": {""transparent"": 0, ""refraction"": 0.0, ""birefringence"": 0.0}}"
Sabinaite,Na4TiZr2O4(CO3)4,"{""Na"": 4.0, ""Ti"": 1.0, ""Zr"": 2.0, ""O"": 16.0, ""C"": 4.0}",626.31,#FFFFFF,monoclinic,"{""system"": ""monoclinic"", ""scale"": [0.7, 1.0, 1.3], ""optical"": {""transparent"": 1, ""refraction"": 1.5, ""birefringence"": 0.01}}"
Sabugalite,HAl(UO2)4(PO4)4·16H2O,"{""H"": 33.0, ""Al"": 1.0, ""U"": 4.0, ""O"": 40.0, ""P"": 4.0}",1776.24,#FFFFFF,tetragonal,"{""system"": ""tetragonal"", ""scale"": [1.0, 1.0, 1.4], ""optical"": {""transparent"": 1, ""refraction"": 1.5, ""birefringence"": 0.01}}"
Sacrofanite,(Na61K19Ca32)Σ=112(Si84Al84O336)(SO4)26Cl2F6·2H2O,"{""Na"": 6832.0, ""K"": 2128.0, ""Ca"": 3584.0, ""Si"": 84.0, ""Al"": 84.0, ""O"": 442.0, ""S"": 26.0, ""Cl"": 2.0, ""F"": 6.0, ""H"": 4.0}",396639.57,#FFFFFF,hexagonal,"{""system"": ""hexagonal"", ""scale"": [1.0, 1.0, 1.6], ""optical"": {""transparent"": 1, ""refraction"": 1.5, ""birefringence"": 0.01}}"
Sadanagaite,NaCa2(Mg3Al2)(Si5Al3)O22(OH)2,"{""Na"": 1.0, ""Ca"": 2.0, ""Mg"": 3.0, ""Al"": 5.0, ""Si"": 5.0, ""O"": 24.0, ""H"": 2.0}",837.45,#FFFFFF,monoclinic,"{""system"": ""monoclinic"", ""scale"": [0.7, 1.0, 1.3], ""optical"": {""transparent"": 1, ""refraction"": 1.5, ""birefringence"": 0.01}}"
Saddlebackite,Pb2Bi2Te2S3,"{""Pb"": 2.0, ""Bi"": 2.0, ""Te"": 2.0, ""S"": 3.0}",1183.74,#708090,hexagonal,"{""system"": ""hexagonal"", ""scale"": [1.0, 1.0, 1.6], ""optical"": {""transparent"": 0, ""refraction"": 0.0, ""birefringence"": 0.0}}"
Safflorite,CoAs2,"{""Co"": 1.0, ""As"": 2.0}",208.77,#4169E1,orthorhombic,"{""system"": ""orthorhombic"", ""scale"": [0.8, 1.0, 1.2], ""optical"": {""transparent"": 0, ""refraction"": 0.0, ""birefringence"": 0.0}}"
Sahamalite-(Ce),Ce2Mg(CO3)4,"{""Ce"": 2.0, ""Mg"": 1.0, ""C"": 4.0, ""O"": 12.0}",544.59,#FFFFFF,monoclinic,"{""system"": ""monoclinic"", ""scale"": [0.7, 1.0, 1.3], ""optical"": {""transparent"": 1, ""refraction"": 1.5, ""birefringence"": 0.01}}"
Sahlinite,Pb14O9(AsO4)2Cl4,"{""Pb"": 14.0, ""O"": 17.0, ""As"": 2.0, ""Cl"": 4.0}",3464.44,#FFFFFF,monoclinic,"{""system"": ""monoclinic"", ""scale"": [0.7, 1.0, 1.3], ""optical"": {""transparent"": 1, ""refraction"": 1.5, ""birefringence"": 0.01}}"
Sainfeldite,Ca5(AsO4)2(AsO3OH)2·4H2O,"{""Ca"": 5.0, ""As"": 4.0, ""O"": 20.0, ""H"": 10.0}",830.16,#FFFFFF,monoclinic,"{""system"": ""monoclinic"", ""scale"": [0.7, 1.0, 1.3], ""optical"": {""transparent"": 1, ""refraction"": 1.5, ""birefringence"": 0.01}}"
Salammoniac,(NH4)Cl,"{""N"": 1.0, ""H"": 4.0, ""Cl"": 1.0}",53.49,#FFFFFF,cubic,"{""system"": ""cubic"", ""scale"": [1.0, 1.0, 1.0], ""optical"": {""transparent"": 1, ""refraction"": 1.5, ""birefringence"": 0.0}}"
Saleeite,Mg(UO2)2(PO4)2(H2O)10,"{""Mg"": 1.0, ""U"": 2.0, ""O"": 22.0, ""P"": 2.0, ""H"": 20.0}",934.47,#FFFFFF,monoclinic,"{""system"": ""monoclinic"", ""scale"": [0.7, 1.0, 1.3], ""optical"": {""transparent"": 1, ""refraction"": 1.5, ""birefringence"": 0.01}}"
Salesite,Cu(IO3)(OH),"{""Cu"": 1.0, ""I"": 1.0, ""O"": 4.0, ""H"": 1.0}",255.46,#FFFFFF,orthorhombic,"{""system"": ""orthorhombic"", ""scale"": [0.8, 1.0, 1.2], ""optical"": {""transparent"": 1, ""refraction"": 1.5, ""birefringence"": 0.01}}"
Samaniite,Cu2Fe5Ni2S8,"{""Cu"": 2.0, ""Fe"": 5.0, ""Ni"": 2.0, ""S"": 8.0}",780.21,#DAA520,tetragonal,"{""system"": ""tetragonal"", ""scale"": [1.0, 1.0, 1.4], ""optical"": {""transparent"": 0, ""refraction"": 0.0, ""birefringence"": 0.0}}"
Samarskite-(Y),YFe3+Nb2O8,"{""Y"": 1.0, ""Fe"": 1.0, ""Nb"": 2.0, ""O"": 8.0}",458.58,#556B2F,monoclinic,"{""system"": ""monoclinic"", ""scale"": [0.7, 1.0, 1.3], ""optical"": {""transparent"": 0, ""refraction"": 0.0, ""birefringence"": 0.0}}"
Samarskite-(Yb),YbNbO4,"{""Yb"": 1.0, ""Nb"": 1.0, ""O"": 4.0}",329.96,#FFFFFF,monoclinic,"{""system"": ""monoclinic"", ""scale"": [0.7, 1.0, 1.3], ""optical"": {""transparent"": 1, ""refraction"": 1.5, ""birefringence"": 0.01}}"
Sampleite,NaCaCu5(PO4)4Cl·5H2O,"{""Na"": 1.0, ""Ca"": 1.0, ""Cu"": 5.0, ""P"": 4.0, ""O"": 21.0, ""Cl"": 1.0, ""H"": 10.0}",886.23,#FFFFFF,monoclinic,"{""system"": ""monoclinic"", ""scale"": [0.7, 1.0, 1.3], ""optical"": {""transparent"": 1, ""refraction"": 1.5, ""birefringence"": 0.01}}"
Samraite,Ni2P2O7,"{""Ni"": 2.0, ""P"": 2.0, ""O"": 7.0}",291.32,#7FFF00,monoclinic,"{""system"": ""monoclinic"", ""scale"": [0.7, 1.0, 1.3], ""optical"": {""transparent"": 0, ""refraction"": 0.0, ""birefringence"": 0.0}}"
Sanbornite,BaSi2O5,"{""Ba"": 1.0, ""Si"": 2.0, ""O"": 5.0}",273.51,#FFFFFF,orthorhombic,"{""system"": ""orthorhombic"", ""scale"": [0.8, 1.0, 1.2], ""optical"": {""transparent"": 1, ""refraction"": 1.5, ""birefringence"": 0.01}}"