name,formula,elements,density,color,crystal_system,dna
Allendeite,Sc4Zr3O12,"{""Sc"": 4.0, ""Zr"": 3.0, ""O"": 12.0}",645.5,#FFFFFF,hexagonal,"{""system"": ""hexagonal"", ""scale"": [1.0, 1.0, 1.6], ""optical"": {""transparent"": 1, ""refraction"": 1.5, ""birefringence"": 0.01}}"
Allochalcoselite,Cu1+Cu2+5PbO2(SeO3)2Cl5,"{""Cu"": 6.0, ""Pb"": 1.0, ""O"": 8.0, ""Se"": 2.0, ""Cl"": 5.0}",1051.67,#FFFFFF,monoclinic,"{""system"": ""monoclinic"", ""scale"": [0.7, 1.0, 1.3], ""optical"": {""transparent"": 1, ""refraction"": 1.5, ""birefringence"": 0.01}}"
Alloclasite,CoAsS,"{""Co"": 1.0, ""As"": 1.0, ""S"": 1.0}",165.91,#FFD700,monoclinic,"{""system"": ""monoclinic"", ""scale"": [0.7, 1.0, 1.3], ""optical"": {""transparent"": 0, ""refraction"": 0.0, ""birefringence"": 0.0}}"
Almandine,Fe2+3Al2(SiO4)3,"{""Fe"": 3.0, ""Al"": 2.0, ""Si"": 3.0, ""O"": 12.0}",497.78,#556B2F,cubic,"{""system"": ""cubic"", ""scale"": [1.0, 1.0, 1.0], ""optical"": {""transparent"": 0, ""refraction"": 0.0, ""birefringence"": 0.0}}"
Alpersite,Mg(SO4)·7H2O,"{""Mg"": 1.0, ""S"": 1.0, ""O"": 11.0, ""H"": 14.0}",246.48,#FFFFFF,monoclinic,"{""system"": ""monoclinic"", ""scale"": [0.7, 1.0, 1.3], ""optical"": {""transparent"": 1, ""refraction"": 1.5, ""birefringence"": 0.01}}"
Alstonite,BaCa(CO3)2,"{""Ba"": 1.0, ""Ca"": 1.0, ""C"": 2.0, ""O"": 6.0}",297.43,#FFFFFF,hexagonal,"{""system"": ""hexagonal"", ""scale"": [1.0, 1.0, 1.6], ""optical"": {""transparent"": 1, ""refraction"": 1.5, ""birefringence"": 0.01}}"
Altaite,PbTe,"{""Pb"": 1.0, ""Te"": 1.0}",334.8,#FFFFFF,cubic,"{""system"": ""cubic"", ""scale"": [1.0, 1.0, 1.0], ""optical"": {""transparent"": 1, ""refraction"": 1.5, ""birefringence"": 0.0}}"
Althupite,AlTh(UO2)7(PO4)4O2(OH)5·15H2O,"{""Al"": 1.0, ""Th"": 1.0, ""U"": 7.0, ""O"": 52.0, ""P"": 4.0, ""H"": 35.0}",2916.39,#FFFFFF,triclinic,"{""system"": ""triclinic"", ""scale"": [0.7, 1.0, 1.3], ""optical"": {""transparent"": 1, ""refraction"": 1.5, ""birefringence"": 0.01}}"
Altisite,Na3K6Ti2Al2Si8O26Cl3,"{""Na"": 3.0, ""K"": 6.0, ""Ti"": 2.0, ""Al"": 2.0, ""Si"": 8.0, ""O"": 26.0, ""Cl"": 3.0}",1200.34,#FFFFFF,monoclinic,"{""system"": ""monoclinic"", ""scale"": [0.7, 1.0, 1.3], ""optical"": {""transparent"": 1, ""refraction"": 1.5, ""birefringence"": 0.01}}"
Aluminite,Al2(SO4)(OH)4·7H2O,"{""Al"": 2.0, ""S"": 1.0, ""O"": 15.0, ""H"": 18.0}",344.16,#FFFFFF,monoclinic,"{""system"": ""monoclinic"", ""scale"": [0.7, 1.0, 1.3], ""optical"": {""transparent"": 1, ""refraction"": 1.5, ""birefringence"": 0.01}}"
Aluminium,Al,"{""Al"": 1.0}",26.98,#FFFFFF,cubic,"{""system"": ""cubic"", ""scale"": [1.0, 1.0, 1.0], ""optical"": {""transparent"": 1, ""refraction"": 1.5, ""birefringence"": 0.0}}"
Aluminocoquimbite,Al2Fe2(SO4)6(H2O)12·9H2O,"{""Al"": 2.0, ""Fe"": 2.0, ""S"": 6.0, ""O"": 45.0, ""H"": 42.0}",1120.36,#556B2F,hexagonal,"{""system"": ""hexagonal"", ""scale"": [1.0, 1.0, 1.6], ""optical"": {""transparent"": 0, ""refraction"": 0.0, ""birefringence"": 0.0}}"
Aluminomagnesiohulsite,Mg2AlO2(BO3),"{""Mg"": 2.0, ""Al"": 1.0, ""O"": 5.0, ""B"": 1.0}",166.41,#FFFFFF,monoclinic,"{""system"": ""monoclinic"", ""scale"": [0.7, 1.0, 1.3], ""optical"": {""transparent"": 1, ""refraction"": 1.5, ""birefringence"": 0.01}}"
Alumino-oxy-rossmanite,Al3Al6(Si5AlO18)(BO3)3(OH)3O,"{""Al"": 10.0, ""Si"": 5.0, ""O"": 31.0, ""B"": 3.0, ""H"": 3.0}",941.7,#FFFFFF,hexagonal,"{""system"": ""hexagonal"", ""scale"": [1.0, 1.0, 1.6], ""optical"": {""transparent"": 1, ""refraction"": 1.5, ""birefringence"": 0.01}}"
Aluminopyracmonite,(NH4)3Al(SO4)3,"{""N"": 3.0, ""H"": 12.0, ""Al"": 1.0, ""S"": 3.0, ""O"": 12.0}",369.29,#FFFFFF,hexagonal,"{""system"": ""hexagonal"", ""scale"": [1.0, 1.0, 1.6], ""optical"": {""transparent"": 1, ""refraction"": 1.5, ""birefringence"": 0.01}}"
Aluminosugilite,KNa2Al2Li3Si12O30,"{""K"": 1.0, ""Na"": 2.0, ""Al"": 2.0, ""Li"": 3.0, ""Si"": 12.0, ""O"": 30.0}",976.94,#FFFFFF,hexagonal,"{""system"": ""hexagonal"", ""scale"": [1.0, 1.0, 1.6], ""optical"": {""transparent"": 1, ""refraction"": 1.5, ""birefringence"": 0.01}}"
Aluminotaipingite-(CeCa),(Ce6Ca3)Al(SiO4)3[SiO3(OH)]4F3,"{""Ce"": 6.0, ""Ca"": 3.0, ""Al"": 1.0, ""Si"": 7.0, ""O"": 28.0, ""H"": 4.0, ""F"": 3.0}",1693.6,#FFFFFF,hexagonal,"{""system"": ""hexagonal"", ""scale"": [1.0, 1.0, 1.6], ""optical"": {""transparent"": 1, ""refraction"": 1.5, ""birefringence"": 0.01}}"
Alum-(K),KAl(SO4)2·12H2O,"{""K"": 1.0, ""Al"": 1.0, ""S"": 2.0, ""O"": 20.0, ""H"": 24.0}",474.39,#FFFFFF,cubic,"{""system"": ""cubic"", ""scale"": [1.0, 1.0, 1.0], ""optical"": {""transparent"": 1, ""refraction"": 1.5, ""birefringence"": 0.0}}"
Alum-(Na),NaAl(SO4)2·12H2O,"{""Na"": 1.0, ""Al"": 1.0, ""S"": 2.0, ""O"": 20.0, ""H"": 24.0}",458.28,#FFFFFF,cubic,"{""system"": ""cubic"", ""scale"": [1.0, 1.0, 1.0], ""optical"": {""transparent"": 1, ""refraction"": 1.5, ""birefringence"": 0.0}}"
Alumoedtollite,K2NaCu5AlO2(AsO4)4,"{""K"": 2.0, ""Na"": 1.0, ""Cu"": 5.0, ""Al"": 1.0, ""O"": 18.0, ""As"": 4.0}",1033.6,#FFFFFF,triclinic,"{""system"": ""triclinic"", ""scale"": [0.7, 1.0, 1.3], ""optical"": {""transparent"": 1, ""refraction"": 1.5, ""birefringence"": 0.01}}"
Alumohydrocalcite,CaAl2(CO3)2(OH)4·4H2O,"{""Ca"": 1.0, ""Al"": 2.0, ""C"": 2.0, ""O"": 14.0, ""H"": 12.0}",354.16,#FFFFFF,triclinic,"{""system"": ""triclinic"", ""scale"": [0.7, 1.0, 1.3], ""optical"": {""transparent"": 1, ""refraction"": 1.5, ""birefringence"": 0.01}}"
Alumoklyuchevskite,K3Cu2+3AlO2(SO4)4,"{""K"": 3.0, ""Cu"": 3.0, ""Al"": 1.0, ""O"": 18.0, ""S"": 4.0}",751.17,#FFFFFF,monoclinic,"{""system"": ""monoclinic"", ""scale"": [0.7, 1.0, 1.3], ""optical"": {""transparent"": 1, ""refraction"": 1.5, ""birefringence"": 0.01}}"
Alumolukrahnite,CaCu2+Al(AsO4)2(OH)(H2O),"{""Ca"": 1.0, ""Cu"": 1.0, ""Al"": 1.0, ""As"": 2.0, ""O"": 10.0, ""H"": 3.0}",443.47,#FFFFFF,triclinic,"{""system"": ""triclinic"", ""scale"": [0.7, 1.0, 1.3], ""optical"": {""transparent"": 1, ""refraction"": 1.5, ""birefringence"": 0.01}}"
Alumotantite,AlTaO4,"{""Al"": 1.0, ""Ta"": 1.0, ""O"": 4.0}",271.93,#FFFFFF,orthorhombic,"{""system"": ""orthorhombic"", ""scale"": [0.8, 1.0, 1.2], ""optical"": {""transparent"": 1, ""refraction"": 1.5, ""birefringence"": 0.01}}"
Alumovesuvianite,Ca19Al(Al10Mg2)Si18O69(OH)9,"{""Ca"": 19.0, ""Al"": 11.0, ""Mg"": 2.0, ""Si"": 18.0, ""O"": 78.0, ""H"": 9.0}",2869.61,#FFFFFF,tetragonal,"{""system"": ""tetragonal"", ""scale"": [1.0, 1.0, 1.4], ""optical"": {""transparent"": 1, ""refraction"": 1.5, ""birefringence"": 0.01}}"
Alunite,KAl3(SO4)2(OH)6,"{""K"": 1.0, ""Al"": 3.0, ""S"": 2.0, ""O"": 14.0, ""H"": 6.0}",414.21,#FFFFFF,hexagonal,"{""system"": ""hexagonal"", ""scale"": [1.0, 1.0, 1.6], ""optical"": {""transparent"": 1, ""refraction"": 1.5, ""birefringence"": 0.01}}"
Alunogen,Al2(SO4)3(H2O)12·5H2O,"{""Al"": 2.0, ""S"": 3.0, ""O"": 29.0, ""H"": 34.0}",648.41,#FFFFFF,triclinic,"{""system"": ""triclinic"", ""scale"": [0.7, 1.0, 1.3], ""optical"": {""transparent"": 1, ""refraction"": 1.5, ""birefringence"": 0.01}}"
Alvesite,NaKZrSi6O15·2H2O,"{""Na"": 1.0, ""K"": 1.0, ""Zr"": 1.0, ""Si"": 6.0, ""O"": 17.0, ""H"": 4.0}",597.88,#FFFFFF,orthorhombic,"{""system"": ""orthorhombic"", ""scale"": [0.8, 1.0, 1.2], ""optical"": {""transparent"": 1, ""refraction"": 1.5, ""birefringence"": 0.01}}"
Alwilkinsite-(Y),Y(UO2)3(SO4)2O(OH)3(H2O)7·7H2O,"{""Y"": 1.0, ""U"": 3.0, ""O"": 32.0, ""S"": 2.0, ""H"": 31.0}",1410.37,#FFFFFF,orthorhombic,"{""system"": ""orthorhombic"", ""scale"": [0.8, 1.0, 1.2], ""optical"": {""transparent"": 1, ""refraction"": 1.5, ""birefringence"": 0.01}}"
Amakinite,Fe(OH)2,"{""Fe"": 1.0, ""O"": 2.0, ""H"": 2.0}",89.87,#8B4513,hexagonal,"{""system"": ""hexagonal"", ""scale"": [1.0, 1.0, 1.6], ""optical"": {""transparent"": 0, ""refraction"": 0.0, ""birefringence"": 0.0}}"
Amarantite,Fe3+2O(SO4)2·7H2O,"{""Fe"": 2.0, ""O"": 16.0, ""S"": 2.0, ""H"": 14.0}",445.93,#556B2F,triclinic,"{""system"": ""triclinic"", ""scale"": [0.7, 1.0, 1.3], ""optical"": {""transparent"": 0, ""refraction"": 0.0, ""birefringence"": 0.0}}"
Amarillite,NaFe3+(SO4)2·6H2O,"{""Na"": 1.0, ""Fe"": 1.0, ""S"": 2.0, ""O"": 14.0, ""H"": 12.0}",379.06,#556B2F,monoclinic,"{""system"": ""monoclinic"", ""scale"": [0.7, 1.0, 1.3], ""optical"": {""transparent"": 0, ""refraction"": 0.0, ""birefringence"": 0.0}}"
Amaterasuite,Sr4Ti6Si4O23(OH)Cl,"{""Sr"": 4.0, ""Ti"": 6.0, ""Si"": 4.0, ""O"": 24.0, ""H"": 1.0, ""Cl"": 1.0}",1170.52,#FFFFFF,orthorhombic,"{""system"": ""orthorhombic"", ""scale"": [0.8, 1.0, 1.2], ""optical"": {""transparent"": 1, ""refraction"": 1.5, ""birefringence"": 0.01}}"
Amblygonite,LiAl(PO4)F,"{""Li"": 1.0, ""Al"": 1.0, ""P"": 1.0, ""O"": 4.0, ""F"": 1.0}",147.89,#FFFFFF,triclinic,"{""system"": ""triclinic"", ""scale"": [0.7, 1.0, 1.3], ""optical"": {""transparent"": 1, ""refraction"": 1.5, ""birefringence"": 0.01}}"
Ameghinite,NaB3O3(OH)4,"{""Na"": 1.0, ""B"": 3.0, ""O"": 7.0, ""H"": 4.0}",171.45,#FFFFFF,monoclinic,"{""system"": ""monoclinic"", ""scale"": [0.7, 1.0, 1.3], ""optical"": {""transparent"": 1, ""refraction"": 1.5, ""birefringence"": 0.01}}"
Amesite,Mg2Al(AlSiO5)(OH)4,"{""Mg"": 2.0, ""Al"": 2.0, ""Si"": 1.0, ""O"": 9.0, ""H"": 4.0}",278.7,#FFFFFF,hexagonal,"{""system"": ""hexagonal"", ""scale"": [1.0, 1.0, 1.6], ""optical"": {""transparent"": 1, ""refraction"": 1.5, ""birefringence"": 0.01}}"
Amgaite,Tl3+2Te6+O6,"{""Tl"": 2.0, ""Te"": 1.0, ""O"": 6.0}",632.36,#FFFFFF,hexagonal,"{""system"": ""hexagonal"", ""scale"": [1.0, 1.0, 1.6], ""optical"": {""transparent"": 1, ""refraction"": 1.5, ""birefringence"": 0.01}}"
Amicite,K2Na2(Al4Si4O16)·5H2O,"{""K"": 2.0, ""Na"": 2.0, ""Al"": 4.0, ""Si"": 4.0, ""O"": 21.0, ""H"": 10.0}",690.54,#FFFFFF,monoclinic,"{""system"": ""monoclinic"", ""scale"": [0.7, 1.0, 1.3], ""optical"": {""transparent"": 1, ""refraction"": 1.5, ""birefringence"": 0.01}}"
Aminoffite,Ca3(BeOH)2Si3O10,"{""Ca"": 3.0, ""Be"": 2.0, ""O"": 12.0, ""H"": 2.0, ""Si"": 3.0}",416.55,#FFFFFF,tetragonal,"{""system"": ""tetragonal"", ""scale"": [1.0, 1.0, 1.4], ""optical"": {""transparent"": 1, ""refraction"": 1.5, ""birefringence"": 0.01}}"
Ammineite,CuCl2·2NH3,"{""Cu"": 1.0, ""Cl"": 2.0, ""N"": 2.0, ""H"": 6.0}",168.52,#FFFFFF,orthorhombic,"{""system"": ""orthorhombic"", ""scale"": [0.8, 1.0, 1.2], ""optical"": {""transparent"": 1, ""refraction"": 1.5, ""birefringence"": 0.01}}"
Ammonioalunite,(NH4)Al3(SO4)2(OH)6,"{""N"": 1.0, ""H"": 10.0, ""Al"": 3.0, ""S"": 2.0, ""O"": 14.0}",393.15,#FFFFFF,hexagonal,"{""system"": ""hexagonal"", ""scale"": [1.0, 1.0, 1.6], ""optical"": {""transparent"": 1, ""refraction"": 1.5, ""birefringence"": 0.01}}"
Ammonioborite,(NH4)3B15O20(OH)8·4H2O,"{""N"": 3.0, ""H"": 28.0, ""B"": 15.0, ""O"": 32.0}",744.4,#FFFFFF,monoclinic,"{""system"": ""monoclinic"", ""scale"": [0.7, 1.0, 1.3], ""optical"": {""transparent"": 1, ""refraction"": 1.5, ""birefringence"": 0.01}}"
Ammoniojarosite,(NH4)Fe3+3(SO4)2(OH)6,"{""N"": 1.0, ""H"": 10.0, ""Fe"": 3.0, ""S"": 2.0, ""O"": 14.0}",479.76,#556B2F,hexagonal,"{""system"": ""hexagonal"", ""scale"": [1.0, 1.0, 1.6], ""optical"": {""transparent"": 0, ""refraction"": 0.0, ""birefringence"": 0.0}}"
Ammoniolasalite,[(NH4)2Mg2(H2O)20]·[V10O28],"{""N"": 2.0, ""H"": 48.0, ""Mg"": 2.0, ""O"": 48.0, ""V"": 10.0}",1402.42,#FFFFFF,monoclinic,"{""system"": ""monoclinic"", ""scale"": [0.7, 1.0, 1.3], ""optical"": {""transparent"": 1, ""refraction"": 1.5, ""birefringence"": 0.01}}"
Ammonioleucite,(NH4)(AlSi2O6),"{""N"": 1.0, ""H"": 4.0, ""Al"": 1.0, ""Si"": 2.0, ""O"": 6.0}",197.2,#FFFFFF,tetragonal,"{""system"": ""tetragonal"", ""scale"": [1.0, 1.0, 1.4], ""optical"": {""transparent"": 1, ""refraction"": 1.5, ""birefringence"": 0.01}}"
Ammoniomagnesiovoltaite,(NH4)2Mg5Fe3+3Al(SO4)12·18H2O,"{""N"": 2.0, ""H"": 44.0, ""Mg"": 5.0, ""Fe"": 3.0, ""Al"": 1.0, ""S"": 12.0, ""O"": 66.0}",1829.17,#556B2F,cubic,"{""system"": ""cubic"", ""scale"": [1.0, 1.0, 1.0], ""optical"": {""transparent"": 0, ""refraction"": 0.0, ""birefringence"": 0.0}}"
Ammoniomathesiusite,(NH4)5(UO2)4(SO4)4(VO5)·4H2O,"{""N"": 5.0, ""H"": 28.0, ""U"": 4.0, ""O"": 33.0, ""S"": 4.0, ""V"": 1.0}",1757.57,#FFFFFF,tetragonal,"{""system"": ""tetragonal"", ""scale"": [1.0, 1.0, 1.4], ""optical"": {""transparent"": 1, ""refraction"": 1.5, ""birefringence"": 0.01}}"
Ammoniotinsleyite,(NH4)Al2(PO4)2(OH)·2H2O,"{""N"": 1.0, ""H"": 9.0, ""Al"": 2.0, ""P"": 2.0, ""O"": 11.0}",314.98,#FFFFFF,monoclinic,"{""system"": ""monoclinic"", ""scale"": [0.7, 1.0, 1.3], ""optical"": {""transparent"": 1, ""refraction"": 1.5, ""birefringence"": 0.01}}"
Ammoniovoltaite,(NH4)2Fe2+5Fe3+3Al(SO4)12(H2O)18,"{""N"": 2.0, ""H"": 44.0, ""Fe"": 8.0, ""Al"": 1.0, ""S"": 12.0, ""O"": 66.0}",1986.87,#556B2F,cubic,"{""system"": ""cubic"", ""scale"": [1.0, 1.0, 1.0], ""optical"": {""transparent"": 0, ""refraction"": 0.0, ""birefringence"": 0.0}}"
Ammoniozippeite,(NH4)2[(UO2)2(SO4)O2]·H2O,"{""N"": 2.0, ""H"": 10.0, ""U"": 2.0, ""O"": 11.0, ""S"": 1.0}",722.22,#FFFFFF,orthorhombic,"{""system"": ""orthorhombic"", ""scale"": [0.8, 1.0, 1.2], ""optical"": {""transparent"": 1, ""refraction"": 1.5, ""birefringence"": 0.01}}"
Amoraite,Ca12Al6(OH)36(CO3)2(SO3)·15H2O,"{""Ca"": 12.0, ""Al"": 6.0, ""O"": 60.0, ""H"": 66.0, ""C"": 2.0, ""S"": 1.0}",1725.45,#FFFFFF,triclinic,"{""system"": ""triclinic"", ""scale"": [0.7, 1.0, 1.3], ""optical"": {""transparent"": 1, ""refraction"": 1.5, ""birefringence"": 0.01}}"
Amurselite,(NH4)2(UO2)5(SeO3)3O2(OH)2(H2O)·8H2O,"{""N"": 2.0, ""H"": 28.0, ""U"": 5.0, ""O"": 32.0, ""Se"": 3.0}",1995.27,#FFFFFF,triclinic,"{""system"": ""triclinic"", ""scale"": [0.7, 1.0, 1.3], ""optical"": {""transparent"": 1, ""refraction"": 1.5, ""birefringence"": 0.01}}"
Analcime,Na(AlSi2O6)·H2O,"{""Na"": 1.0, ""Al"": 1.0, ""Si"": 2.0, ""O"": 7.0, ""H"": 2.0}",220.17,#FFFFFF,hexagonal,"{""system"": ""hexagonal"", ""scale"": [1.0, 1.0, 1.6], ""optical"": {""transparent"": 1, ""refraction"": 1.5, ""birefringence"": 0.01}}"
Anandite,BaFe2+3(Si3Fe3+)O10S(OH),"{""Ba"": 1.0, ""Fe"": 4.0, ""Si"": 3.0, ""O"": 11.0, ""S"": 1.0, ""H"": 1.0}",654.07,#556B2F,orthorhombic,"{""system"": ""orthorhombic"", ""scale"": [0.8, 1.0, 1.2], ""optical"": {""transparent"": 0, ""refraction"": 0.0, ""birefringence"": 0.0}}"
Anapaite,Ca2Fe2+(PO4)2·4H2O,"{""Ca"": 2.0, ""Fe"": 1.0, ""P"": 2.0, ""O"": 12.0, ""H"": 8.0}",398.01,#556B2F,triclinic,"{""system"": ""triclinic"", ""scale"": [0.7, 1.0, 1.3], ""optical"": {""transparent"": 0, ""refraction"": 0.0, ""birefringence"": 0.0}}"
Anastasenkoite,CaFe2+P2O7,"{""Ca"": 1.0, ""Fe"": 1.0, ""P"": 2.0, ""O"": 7.0}",269.87,#556B2F,triclinic,"{""system"": ""triclinic"", ""scale"": [0.7, 1.0, 1.3], ""optical"": {""transparent"": 0, ""refraction"": 0.0, ""birefringence"": 0.0}}"
Anatase,TiO2,"{""Ti"": 1.0, ""O"": 2.0}",79.87,#FFFFFF,tetragonal,"{""system"": ""tetragonal"", ""scale"": [1.0, 1.0, 1.4], ""optical"": {""transparent"": 1, ""refraction"": 1.5, ""birefringence"": 0.01}}"
Anatolygurbanovite,SrCa2Si3O9,"{""Sr"": 1.0, ""Ca"": 2.0, ""Si"": 3.0, ""O"": 9.0}",396.05,#FFFFFF,triclinic,"{""system"": ""triclinic"", ""scale"": [0.7, 1.0, 1.3], ""optical"": {""transparent"": 1, ""refraction"": 1.5, ""birefringence"": 0.01}}"
Ancylite-(Ce),CeSr(CO3)2(OH)·H2O,"{""Ce"": 1.0, ""Sr"": 1.0, ""C"": 2.0, ""O"": 8.0, ""H"": 3.0}",382.78,#FFFFFF,orthorhombic,"{""system"": ""orthorhombic"", ""scale"": [0.8, 1.0, 1.2], ""optical"": {""transparent"": 1, ""refraction"": 1.5, ""birefringence"": 0.01}}"
Ancylite-(La),LaSr(CO3)2(OH)·H2O,"{""La"": 1.0, ""Sr"": 1.0, ""C"": 2.0, ""O"": 8.0, ""H"": 3.0}",381.57,#FFFFFF,orthorhombic,"{""system"": ""orthorhombic"", ""scale"": [0.8, 1.0, 1.2], ""optical"": {""transparent"": 1, ""refraction"": 1.5, ""birefringence"": 0.01}}"
Andalusite,Al2SiO5,"{""Al"": 2.0, ""Si"": 1.0, ""O"": 5.0}",162.05,#FFFFFF,orthorhombic,"{""system"": ""orthorhombic"", ""scale"": [0.8, 1.0, 1.2], ""optical"": {""transparent"": 1, ""refraction"": 1.5, ""birefringence"": 0.01}}"
Andersonite,Na2Ca(UO2)(CO3)3·5-6H2O,"{""Na"": 2.0, ""Ca"": 1.0, ""U"": 1.0, ""O"": 17.0, ""C"": 3.0, ""H"": 12.0}",644.22,#FFFFFF,hexagonal,"{""system"": ""hexagonal"", ""scale"": [1.0, 1.0, 1.6], ""optical"": {""transparent"": 1, ""refraction"": 1.5, ""birefringence"": 0.01}}"
Andradite,Ca3Fe3+2(SiO4)3,"{""Ca"": 3.0, ""Fe"": 2.0, ""Si"": 3.0, ""O"": 12.0}",508.21,#556B2F,triclinic,"{""system"": ""triclinic"", ""scale"": [0.7, 1.0, 1.3], ""optical"": {""transparent"": 0, ""refraction"": 0.0, ""birefringence"": 0.0}}"
Andreadiniite,CuHgAg7Pb7Sb24S48,"{""Cu"": 1.0, ""Hg"": 1.0, ""Ag"": 7.0, ""Pb"": 7.0, ""Sb"": 24.0, ""S"": 48.0}",6930.75,#708090,monoclinic,"{""system"": ""monoclinic"", ""scale"": [0.7, 1.0, 1.3], ""optical"": {""transparent"": 0, ""refraction"": 0.0, ""birefringence"": 0.0}}"
Andremeyerite,BaFe2+2(Si2O7),"{""Ba"": 1.0, ""Fe"": 2.0, ""Si"": 2.0, ""O"": 7.0}",417.21,#556B2F,orthorhombic,"{""system"": ""orthorhombic"", ""scale"": [0.8, 1.0, 1.2], ""optical"": {""transparent"": 0, ""refraction"": 0.0, ""birefringence"": 0.0}}"
Andreybulakhite,Ni(C2O4)·2H2O,"{""Ni"": 1.0, ""C"": 2.0, ""O"": 6.0, ""H"": 4.0}",182.74,#FFFFFF,monoclinic,"{""system"": ""monoclinic"", ""scale"": [0.7, 1.0, 1.3], ""optical"": {""transparent"": 1, ""refraction"": 1.5, ""birefringence"": 0.01}}"
Andreyivanovite,FeCrP,"{""Fe"": 1.0, ""Cr"": 1.0, ""P"": 1.0}",138.82,#228B22,orthorhombic,"{""system"": ""orthorhombic"", ""scale"": [0.8, 1.0, 1.2], ""optical"": {""transparent"": 0, ""refraction"": 0.0, ""birefringence"": 0.0}}"
Andrieslombaardite,RhSbS,"{""Rh"": 1.0, ""Sb"": 1.0, ""S"": 1.0}",256.73,#A9A9A9,cubic,"{""system"": ""cubic"", ""scale"": [1.0, 1.0, 1.0], ""optical"": {""transparent"": 0, ""refraction"": 0.0, ""birefringence"": 0.0}}"
Anduoite,RuAs2,"{""Ru"": 1.0, ""As"": 2.0}",250.91,#808080,orthorhombic,"{""system"": ""orthorhombic"", ""scale"": [0.8, 1.0, 1.2], ""optical"": {""transparent"": 0, ""refraction"": 0.0, ""birefringence"": 0.0}}"
Andychristyite,PbCu2+Te6+O5(H2O),"{""Pb"": 1.0, ""Cu"": 1.0, ""Te"": 1.0, ""O"": 6.0, ""H"": 2.0}",496.37,#FFFFFF,triclinic,"{""system"": ""triclinic"", ""scale"": [0.7, 1.0, 1.3], ""optical"": {""transparent"": 1, ""refraction"": 1.5, ""birefringence"": 0.01}}"
Andymcdonaldite,Fe2TeO6,"{""Fe"": 2.0, ""Te"": 1.0, ""O"": 6.0}",335.3,#8B4513,tetragonal,"{""system"": ""tetragonal"", ""scale"": [1.0, 1.0, 1.4], ""optical"": {""transparent"": 0, ""refraction"": 0.0, ""birefringence"": 0.0}}"
Andyrobertsite,KCdCu5(AsO4)4[As(OH)2O2]·2H2O,"{""K"": 1.0, ""Cd"": 1.0, ""Cu"": 5.0, ""As"": 5.0, ""O"": 22.0, ""H"": 6.0}",1201.91,#FFFFFF,monoclinic,"{""system"": ""monoclinic"", ""scale"": [0.7, 1.0, 1.3], ""optical"": {""transparent"": 1, ""refraction"": 1.5, ""birefringence"": 0.01}}"
Angarfite,NaFe3+5(PO4)4(OH)4·4H2O,"{""Na"": 1.0, ""Fe"": 5.0, ""P"": 4.0, ""O"": 24.0, ""H"": 12.0}",822.22,#556B2F,orthorhombic,"{""system"": ""orthorhombic"", ""scale"": [0.8, 1.0, 1.2], ""optical"": {""transparent"": 0, ""refraction"": 0.0, ""birefringence"": 0.0}}"
Angastonite,CaMgAl2(PO4)2(OH)4·7H2O,"{""Ca"": 1.0, ""Mg"": 1.0, ""Al"": 2.0, ""P"": 2.0, ""O"": 19.0, ""H"": 18.0}",502.43,#FFFFFF,triclinic,"{""system"": ""triclinic"", ""scale"": [0.7, 1.0, 1.3], ""optical"": {""transparent"": 1, ""refraction"": 1.5, ""birefringence"": 0.01}}"
Angelaite,Cu2AgPbBiS4,"{""Cu"": 2.0, ""Ag"": 1.0, ""Pb"": 1.0, ""Bi"": 1.0, ""S"": 4.0}",779.39,#708090,orthorhombic,"{""system"": ""orthorhombic"", ""scale"": [0.8, 1.0, 1.2], ""optical"": {""transparent"": 0, ""refraction"": 0.0, ""birefringence"": 0.0}}"
Angelellite,Fe3+4O3(AsO4)2,"{""Fe"": 4.0, ""O"": 11.0, ""As"": 2.0}",549.24,#8B4513,triclinic,"{""system"": ""triclinic"", ""scale"": [0.7, 1.0, 1.3], ""optical"": {""transparent"": 0, ""refraction"": 0.0, ""birefringence"": 0.0}}"
Anglesite,Pb(SO4),"{""Pb"": 1.0, ""S"": 1.0, ""O"": 4.0}",303.26,#FFFF00,orthorhombic,"{""system"": ""orthorhombic"", ""scale"": [0.8, 1.0, 1.2], ""optical"": {""transparent"": 0, ""refraction"": 0.0, ""birefringence"": 0.0}}"