name,formula,elements,density,color,crystal,pm_ids,gacha_weight
Fukalite,Ca4Si2O6(CO3)(OH)2,"{""Ca"": 4.0, ""Si"": 2.0, ""O"": 11.0, ""C"": 1.0, ""H"": 2.0}",406.498,#FFFFFF,monoclinic,{31},356.0
Fukuchilite,Cu3FeS8,"{""Cu"": 3.0, ""Fe"": 1.0, ""S"": 8.0}",502.963,#DAA520,cubic,{12},129.0
Fulbrightite,Ca(VO)2(AsO4)2·4H2O,"{""Ca"": 1.0, ""V"": 2.0, ""O"": 14.0, ""As"": 2.0, ""H"": 8.0}",523.856,#FFFFFF,triclinic,{47},1998.0
Fuloppite,Pb3Sb8S15,"{""Pb"": 3.0, ""Sb"": 8.0, ""S"": 15.0}",2076.58,#708090,monoclinic,{33},797.0
Fuyuanite,Mg7Nb6O18(OH)8,"{""Mg"": 7.0, ""Nb"": 6.0, ""O"": 26.0, ""H"": 8.0}",1151.609,#FFFFFF,hexagonal,{},1.0
Gabrielite,Tl2AgCu2As3S7,"{""Tl"": 2.0, ""Ag"": 1.0, ""Cu"": 2.0, ""As"": 3.0, ""S"": 7.0}",1092.908,#FFD700,triclinic,{12},129.0
Gabrielsonite,PbFe3+(AsO3)O,"{""Pb"": 1.0, ""Fe"": 1.0, ""As"": 1.0, ""O"": 4.0}",401.963,#556B2F,orthorhombic,{32},412.0
Gadolinite-(Ce),Ce2Fe2+Be2O2(SiO4)2,"{""Ce"": 2.0, ""Fe"": 1.0, ""Be"": 2.0, ""O"": 10.0, ""Si"": 2.0}",570.2694,#556B2F,monoclinic,"{31,34,35}",1646.0
Gadolinite-(Nd),Nd2Fe2+Be2O2(SiO4)2,"{""Nd"": 2.0, ""Fe"": 1.0, ""Be"": 2.0, ""O"": 10.0, ""Si"": 2.0}",578.5094,#556B2F,monoclinic,"{31,34,35}",1646.0
Gadolinite-(Y),Y2Fe2+Be2O2(SiO4)2,"{""Y"": 2.0, ""Fe"": 1.0, ""Be"": 2.0, ""O"": 10.0, ""Si"": 2.0}",467.8414,#556B2F,monoclinic,"{31,34,35}",1646.0
Gagarinite-(Ce),NaCaCeF6,"{""Na"": 1.0, ""Ca"": 1.0, ""Ce"": 1.0, ""F"": 6.0}",317.176,#FFFFFF,hexagonal,{35},726.0
Gagarinite-(Y),NaCaYF6,"{""Na"": 1.0, ""Ca"": 1.0, ""Y"": 1.0, ""F"": 6.0}",265.962,#FFFFFF,hexagonal,{35},726.0
Gaidonnayite,Na2ZrSi3O9·2H2O,"{""Na"": 2.0, ""Zr"": 1.0, ""Si"": 3.0, ""O"": 11.0, ""H"": 4.0}",401.48,#FFFFFF,orthorhombic,"{35,36}",1017.0
Galeaclolusite,Al6(AsO4)3(OH)9(H2O)4·8H2O,"{""Al"": 6.0, ""As"": 3.0, ""O"": 33.0, ""H"": 33.0}",947.889,#FFFFFF,orthorhombic,{47},1998.0
Galeite,Na15(SO4)5ClF4,"{""Na"": 15.0, ""S"": 5.0, ""O"": 20.0, ""Cl"": 1.0, ""F"": 4.0}",936.572,#FFFFFF,hexagonal,"{21,25}",289.0
Galena,PbS,"{""Pb"": 1.0, ""S"": 1.0}",239.26,#708090,cubic,"{11,12,14,15,23,31,32,33,34,36,37,49,50,54}",3795.0
Galenobismutite,PbBi2S4,"{""Pb"": 1.0, ""Bi"": 2.0, ""S"": 4.0}",753.4,#708090,orthorhombic,"{11,12,33}",962.0
Galgenbergite-(Ce),CaCe2(CO3)4·H2O,"{""Ca"": 1.0, ""Ce"": 2.0, ""C"": 4.0, ""O"": 13.0, ""H"": 2.0}",578.365,#FFFFFF,triclinic,{47},1998.0
Galileiite,NaFe2+4(PO4)3,"{""Na"": 1.0, ""Fe"": 4.0, ""P"": 3.0, ""O"": 12.0}",531.28,#556B2F,hexagonal,"{6,50,54}",712.0
Galkhaite,(Hg5Cu)CsAs4S12,"{""Hg"": 5.0, ""Cu"": 1.0, ""Cs"": 1.0, ""As"": 4.0, ""S"": 12.0}",1883.814,#FFD700,cubic,{33},797.0
Galliskiite,Ca4Al2(PO4)2F8·5H2O,"{""Ca"": 4.0, ""Al"": 2.0, ""P"": 2.0, ""O"": 13.0, ""F"": 8.0, ""H"": 10.0}",646.275,#FFFFFF,triclinic,{22},247.0
Gallite,CuGaS2,"{""Cu"": 1.0, ""Ga"": 1.0, ""S"": 2.0}",197.389,#A9A9A9,tetragonal,"{12,15,33}",958.0
Gallobeudantite,PbGa3(AsO4)(SO4)(OH)6,"{""Pb"": 1.0, ""Ga"": 3.0, ""As"": 1.0, ""O"": 14.0, ""S"": 1.0, ""H"": 6.0}",753.385,#FFFFFF,hexagonal,{47},1998.0
Galuskinite,Ca7(SiO4)3(CO3),"{""Ca"": 7.0, ""Si"": 3.0, ""O"": 15.0, ""C"": 1.0}",616.797,#FFFFFF,monoclinic,{31},356.0
Gamagarite,Ba2Fe3+(VO4)2(OH),"{""Ba"": 2.0, ""Fe"": 1.0, ""V"": 2.0, ""O"": 9.0, ""H"": 1.0}",577.388,#556B2F,monoclinic,"{22,32,47}",2657.0
Gananite,BiF3,"{""Bi"": 1.0, ""F"": 3.0}",265.974,#D2B48C,cubic,{23},398.0
Ganomalite,Pb9Ca6(Si2O7)4(SiO4)O,"{""Pb"": 9.0, ""Ca"": 6.0, ""Si"": 9.0, ""O"": 33.0}",2886.0,#FFFFFF,hexagonal,{32},412.0
Gaotaiite,Ir3Te8,"{""Ir"": 3.0, ""Te"": 8.0}",1597.46,#FFFFFF,cubic,{37},135.0
Garavellite,FeSbBiS4,"{""Fe"": 1.0, ""Sb"": 1.0, ""Bi"": 1.0, ""S"": 4.0}",514.825,#DAA520,orthorhombic,{33},797.0
Garmite,CsLiMg2(Si4O10)F2,"{""Cs"": 1.0, ""Li"": 1.0, ""Mg"": 2.0, ""Si"": 4.0, ""O"": 10.0, ""F"": 2.0}",498.786,#FFFFFF,monoclinic,{34},564.0
Garrelsite,NaBa3B7Si2O16(OH)4,"{""Na"": 1.0, ""Ba"": 3.0, ""B"": 7.0, ""Si"": 2.0, ""O"": 20.0, ""H"": 4.0}",890.832,#FFFFFF,monoclinic,{23},398.0
Garronite-Ca,Ca3(Al6Si10O32)·14H2O,"{""Ca"": 3.0, ""Al"": 6.0, ""Si"": 10.0, ""O"": 46.0, ""H"": 28.0}",1327.154,#FFFFFF,tetragonal,{22},247.0
Gartrellite,PbCuFe3+(AsO4)2(OH)·H2O,"{""Pb"": 1.0, ""Cu"": 1.0, ""Fe"": 1.0, ""As"": 2.0, ""O"": 10.0, ""H"": 3.0}",639.449,#556B2F,triclinic,{47},1998.0
Garyansellite,Mg2Fe3+(PO4)2(OH)·2H2O,"{""Mg"": 2.0, ""Fe"": 1.0, ""P"": 2.0, ""O"": 11.0, ""H"": 5.0}",347.432,#556B2F,orthorhombic,{47},1998.0
Gasparite-(Ce),Ce(AsO4),"{""Ce"": 1.0, ""As"": 1.0, ""O"": 4.0}",279.038,#808080,monoclinic,"{40,47}",2317.0
Gasparite-(La),La(AsO4),"{""La"": 1.0, ""As"": 1.0, ""O"": 4.0}",277.828,#808080,monoclinic,{40},319.0
Gaspeite,Ni(CO3),"{""Ni"": 1.0, ""C"": 1.0, ""O"": 3.0}",118.701,#7FFF00,hexagonal,{47},1998.0
Gatewayite,Ca6(As3+V4+3V5+9As5+6O51)·31H2O,"{""Ca"": 6.0, ""As"": 7.0, ""V"": 12.0, ""O"": 82.0, ""H"": 62.0}",2750.64,#FFFFFF,monoclinic,{47},1998.0
Gatumbaite,CaAl2(PO4)2(OH)2·H2O,"{""Ca"": 1.0, ""Al"": 2.0, ""P"": 2.0, ""O"": 11.0, ""H"": 4.0}",336.011,#FFFFFF,monoclinic,"{22,34}",811.0
Gauthierite,KPb[(UO2)7O5(OH)7]·8H2O,"{""K"": 1.0, ""Pb"": 1.0, ""U"": 7.0, ""O"": 34.0, ""H"": 23.0}",2479.658,#FFFFFF,monoclinic,"{27,47}",2007.0
Gaylussite,Na2Ca(CO3)2·5H2O,"{""Na"": 2.0, ""Ca"": 1.0, ""C"": 2.0, ""O"": 11.0, ""H"": 10.0}",296.149,#FFFFFF,monoclinic,"{23,25,47}",2606.0
Gazeevite,BaCa6(SiO4)2(SO4)2O,"{""Ba"": 1.0, ""Ca"": 6.0, ""Si"": 2.0, ""O"": 17.0, ""S"": 2.0}",770.071,#FFFFFF,hexagonal,{51},128.0
Gearksutite,CaAlF4(OH)·H2O,"{""Ca"": 1.0, ""Al"": 1.0, ""F"": 4.0, ""O"": 2.0, ""H"": 3.0}",178.074,#FFFFFF,triclinic,"{23,34,45}",1386.0
Gebhardite,Pb8As3+4O11Cl6,"{""Pb"": 8.0, ""As"": 4.0, ""O"": 11.0, ""Cl"": 6.0}",2345.977,#FFFFFF,monoclinic,{47},1998.0
Geerite,Cu8S5,"{""Cu"": 8.0, ""S"": 5.0}",668.668,#A9A9A9,cubic,{33},797.0
Gehlenite,Ca2Al(SiAl)O7,"{""Ca"": 2.0, ""Al"": 2.0, ""Si"": 1.0, ""O"": 7.0}",274.198,#FFFFFF,tetragonal,"{3,6,8,31,35,36,38,40,51}",2274.0
Geikielite,MgTiO3,"{""Mg"": 1.0, ""Ti"": 1.0, ""O"": 3.0}",120.169,#FFFFFF,hexagonal,"{5,7,13,26,31,36,50,54}",1688.0
Geminite,Cu2+(AsO3OH)·H2O,"{""Cu"": 1.0, ""As"": 1.0, ""O"": 5.0, ""H"": 3.0}",221.487,#FFFFFF,triclinic,"{47,55}",2262.0
Gengenbachite,KFe3(H2PO4)2(HPO4)4·6H2O,"{""K"": 1.0, ""Fe"": 3.0, ""H"": 20.0, ""P"": 6.0, ""O"": 30.0}",892.607,#556B2F,hexagonal,{47},1998.0
Genkinite,Pt4Sb3,"{""Pt"": 4.0, ""Sb"": 3.0}",1145.6,#A9A9A9,tetragonal,"{7,26,36,37}",799.0
Geocronite,Pb14Sb6S23,"{""Pb"": 14.0, ""Sb"": 6.0, ""S"": 23.0}",4368.74,#708090,monoclinic,"{12,33}",926.0
Georgbokiite,Cu5O2(Se4+O3)2Cl2,"{""Cu"": 5.0, ""O"": 8.0, ""Se"": 2.0, ""Cl"": 2.0}",674.564,#FFFFFF,monoclinic,{45},424.0
Georgechaoite,KNaZrSi3O9·2H2O,"{""K"": 1.0, ""Na"": 1.0, ""Zr"": 1.0, ""Si"": 3.0, ""O"": 11.0, ""H"": 4.0}",417.588,#FFFFFF,orthorhombic,"{35,36}",1017.0
George-ericksenite,Na6CaMg(IO3)6(CrO4)2·12H2O,"{""Na"": 6.0, ""Ca"": 1.0, ""Mg"": 1.0, ""I"": 6.0, ""O"": 38.0, ""Cr"": 2.0, ""H"": 24.0}",1699.869,#FFFFFF,monoclinic,"{25,57}",259.0
Georgerobinsonite,Pb4(CrO4)2(OH)2FCl,"{""Pb"": 4.0, ""Cr"": 2.0, ""O"": 10.0, ""H"": 2.0, ""F"": 1.0, ""Cl"": 1.0}",1149.246,#FFFFFF,orthorhombic,{47},1998.0
Georgiadesite,Pb4(As3+O3)Cl4(OH),"{""Pb"": 4.0, ""As"": 1.0, ""O"": 4.0, ""Cl"": 4.0, ""H"": 1.0}",1110.526,#FFFFFF,monoclinic,"{47,56}",2141.0
Gerhardtite,Cu2(NO3)(OH)3,"{""Cu"": 2.0, ""N"": 1.0, ""O"": 6.0, ""H"": 3.0}",240.117,#FFFFFF,orthorhombic,"{52,56}",215.0
Germanite,Cu13Fe2Ge2S16,"{""Cu"": 13.0, ""Fe"": 2.0, ""Ge"": 2.0, ""S"": 16.0}",1596.008,#DAA520,cubic,{33},797.0
Germanocolusite,Cu13VGe3S16,"{""Cu"": 13.0, ""V"": 1.0, ""Ge"": 3.0, ""S"": 16.0}",1607.89,#A9A9A9,cubic,{33},797.0
Gersdorffite,NiAsS,"{""Ni"": 1.0, ""As"": 1.0, ""S"": 1.0}",165.675,#FFD700,cubic,"{33,37}",932.0
Geschieberite,K2(UO2)(SO4)2·2H2O,"{""K"": 2.0, ""U"": 1.0, ""O"": 12.0, ""S"": 2.0, ""H"": 4.0}",576.366,#FFFFFF,orthorhombic,"{47,55}",2262.0
Getchellite,SbAsS3,"{""Sb"": 1.0, ""As"": 1.0, ""S"": 3.0}",292.862,#FFD700,monoclinic,{33},797.0
Geuerite,Ag2Tl4Pb4As22S40,"{""Ag"": 2.0, ""Tl"": 4.0, ""Pb"": 4.0, ""As"": 22.0, ""S"": 40.0}",4792.744,#708090,monoclinic,{},1.0
Geversite,PtSb2,"{""Pt"": 1.0, ""Sb"": 2.0}",438.6,#A9A9A9,cubic,"{33,37}",932.0
Ghiaraite,CaCl2·4H2O,"{""Ca"": 1.0, ""Cl"": 2.0, ""H"": 8.0, ""O"": 4.0}",183.038,#FFFFFF,triclinic,{45},424.0
Giacovazzoite,K5Fe3+3O(SO4)6·10H2O,"{""K"": 5.0, ""Fe"": 3.0, ""O"": 35.0, ""S"": 6.0, ""H"": 20.0}",1135.51,#556B2F,monoclinic,{47},1998.0
Gibbsite,Al(OH)3,"{""Al"": 1.0, ""O"": 3.0, ""H"": 3.0}",78.003,#FFFFFF,monoclinic,{48},71.0
Gilalite,Cu5Si6O17·7H2O,"{""Cu"": 5.0, ""Si"": 6.0, ""O"": 24.0, ""H"": 14.0}",884.328,#FFFFFF,monoclinic,"{12,47,56}",2270.0
Gillardite,Cu3NiCl2(OH)6,"{""Cu"": 3.0, ""Ni"": 1.0, ""Cl"": 2.0, ""O"": 6.0, ""H"": 6.0}",422.273,#FFFFFF,hexagonal,"{47,50}",2271.0
Gillespite,BaFe2+Si4O10,"{""Ba"": 1.0, ""Fe"": 1.0, ""Si"": 4.0, ""O"": 10.0}",465.505,#556B2F,orthorhombic,{32},412.0
Gilmarite,Cu2+3(AsO4)(OH)3,"{""Cu"": 3.0, ""As"": 1.0, ""O"": 7.0, ""H"": 3.0}",380.577,#FFFFFF,triclinic,{33},797.0
Giniite,Fe2+Fe3+4(PO4)4(OH)2·2H2O,"{""Fe"": 5.0, ""P"": 4.0, ""O"": 20.0, ""H"": 6.0}",729.149,#556B2F,monoclinic,{22},247.0
Ginorite,Ca2B14O20(OH)6·5H2O,"{""Ca"": 2.0, ""B"": 14.0, ""O"": 31.0, ""H"": 16.0}",743.593,#FFFFFF,unknown,{47},1998.0
Giorgiosite,Mg5(CO3)4(OH)2·5H2O,"{""Mg"": 5.0, ""C"": 4.0, ""O"": 19.0, ""H"": 12.0}",485.646,#FFFFFF,unknown,"{47,54,55}",2496.0
Girvasite,NaCa2Mg3(PO4)3(CO3)(H2O)6,"{""Na"": 1.0, ""Ca"": 2.0, ""Mg"": 3.0, ""P"": 3.0, ""O"": 21.0, ""C"": 1.0, ""H"": 12.0}",629.069,#FFFFFF,monoclinic,"{22,31,36}",894.0
Gismondine-Ca,Ca2(Si4Al4)O16·8H2O,"{""Ca"": 2.0, ""Si"": 4.0, ""Al"": 4.0, ""O"": 24.0, ""H"": 16.0}",700.528,#FFFFFF,monoclinic,{22},247.0
Gismondine-Sr,Sr4(Si8Al8O32)·9H2O,"{""Sr"": 4.0, ""Si"": 8.0, ""Al"": 8.0, ""O"": 41.0, ""H"": 18.0}",1465.119,#FFFFFF,orthorhombic,{22},247.0
Gittinsite,CaZrSi2O7,"{""Ca"": 1.0, ""Zr"": 1.0, ""Si"": 2.0, ""O"": 7.0}",299.465,#FFFFFF,monoclinic,{35},726.0
Giuscaite,Ag2Tl4Pb4As20Sb2S40,"{""Ag"": 2.0, ""Tl"": 4.0, ""Pb"": 4.0, ""As"": 20.0, ""Sb"": 2.0, ""S"": 40.0}",4886.42,#708090,monoclinic,{},1.0
Giuseppettite,Na42K16Ca6Si48Al48O192(SO4)10Cl2·5H2O,"{""Na"": 42.0, ""K"": 16.0, ""Ca"": 6.0, ""Si"": 48.0, ""Al"": 48.0, ""O"": 237.0, ""S"": 10.0, ""Cl"": 2.0, ""H"": 10.0}",8668.175,#FFFFFF,hexagonal,"{31,35}",1082.0
Gladite,CuPbBi5S9,"{""Cu"": 1.0, ""Pb"": 1.0, ""Bi"": 5.0, ""S"": 9.0}",1604.186,#708090,orthorhombic,{33},797.0
Gladiusite,Fe3+2Fe2+4(PO4)(OH)11·H2O,"{""Fe"": 6.0, ""P"": 1.0, ""O"": 16.0, ""H"": 13.0}",635.132,#556B2F,monoclinic,{22},247.0
Glauberite,Na2Ca(SO4)2,"{""Na"": 2.0, ""Ca"": 1.0, ""S"": 2.0, ""O"": 8.0}",278.17,#FFFFFF,monoclinic,"{25,45}",634.0
Glaukosphaerite,CuNi(CO3)(OH)2,"{""Cu"": 1.0, ""Ni"": 1.0, ""C"": 1.0, ""O"": 5.0, ""H"": 2.0}",216.261,#FFFFFF,monoclinic,{47},1998.0
Glecklerite,Na(C2H3O3),"{""Na"": 1.0, ""C"": 2.0, ""H"": 3.0, ""O"": 3.0}",98.033,#FFFFFF,orthorhombic,{53},117.0
Glushinskite,Mg(C2O4)·2H2O,"{""Mg"": 1.0, ""C"": 2.0, ""O"": 6.0, ""H"": 4.0}",148.353,#FFFFFF,monoclinic,"{50,53}",390.0
Gmelinite-Ca,Ca2(Si8Al4)O24·11H2O,"{""Ca"": 2.0, ""Si"": 8.0, ""Al"": 4.0, ""O"": 35.0, ""H"": 22.0}",994.905,#FFFFFF,hexagonal,"{16,23,26,32}",1143.0
Gmelinite-K,K4(Si8Al4)O24·11H2O,"{""K"": 4.0, ""Si"": 8.0, ""Al"": 4.0, ""O"": 35.0, ""H"": 22.0}",1071.141,#FFFFFF,hexagonal,"{16,23}",481.0
Gmelinite-Na,Na4(Si8Al4)O24·11H2O,"{""Na"": 4.0, ""Si"": 8.0, ""Al"": 4.0, ""O"": 35.0, ""H"": 22.0}",1006.709,#FFFFFF,hexagonal,"{16,23}",481.0
Gobbinsite,Na5(Si11Al5)O32·11H2O,"{""Na"": 5.0, ""Si"": 11.0, ""Al"": 5.0, ""O"": 43.0, ""H"": 22.0}",1268.928,#FFFFFF,orthorhombic,{35},726.0
Gobelinite,CoCu4(SO4)2(OH)6·6H2O,"{""Co"": 1.0, ""Cu"": 4.0, ""S"": 2.0, ""O"": 20.0, ""H"": 18.0}",715.361,#FFFFFF,monoclinic,{47},1998.0
Godovikovite,(NH4)Al(SO4)2,"{""N"": 1.0, ""H"": 4.0, ""Al"": 1.0, ""S"": 2.0, ""O"": 8.0}",237.133,#FFFFFF,hexagonal,"{45,50,54}",931.0
Goedkenite,Sr2Al(PO4)2(OH),"{""Sr"": 2.0, ""Al"": 1.0, ""P"": 2.0, ""O"": 9.0, ""H"": 1.0}",409.169,#FFFFFF,monoclinic,{47},1998.0
Goethite,FeO(OH),"{""Fe"": 1.0, ""O"": 2.0, ""H"": 1.0}",88.851,#8B4513,orthorhombic,"{14,17,24,47,48,49,53,55,57}",2762.0
Gold,Au,"{""Au"": 1.0}",196.97,#FFD700,cubic,"{7,8,12,26,33,36,37,38,49}",2003.0
Goldichite,KFe3+(SO4)2·4H2O,"{""K"": 1.0, ""Fe"": 1.0, ""S"": 2.0, ""O"": 12.0, ""H"": 8.0}",359.115,#556B2F,monoclinic,"{45,47,55}",2686.0
Goldmanite,Ca3V3+2(SiO4)3,"{""Ca"": 3.0, ""V"": 2.0, ""Si"": 3.0, ""O"": 12.0}",498.361,#FFFFFF,cubic,"{6,31,40}",880.0
Goldquarryite,CuCd2Al3(PO4)4F3·10H2O,"{""Cu"": 1.0, ""Cd"": 2.0, ""Al"": 3.0, ""P"": 4.0, ""O"": 26.0, ""F"": 3.0, ""H"": 20.0}",986.336,#FFFFFF,triclinic,{47},1998.0
Goldschmidtite,KNbO3,"{""K"": 1.0, ""Nb"": 1.0, ""O"": 3.0}",180.001,#FFFFFF,cubic,{36},291.0
Golyshevite,Na10Ca9Zr3Fe2SiNb(Si3O9)2(Si9O27)2(OH)3(CO3)·H2O,"{""Na"": 10.0, ""Ca"": 9.0, ""Zr"": 3.0, ""Fe"": 2.0, ""Si"": 25.0, ""Nb"": 1.0, ""O"": 79.0, ""H"": 5.0, ""C"": 1.0}",3051.967,#556B2F,hexagonal,{35},726.0
Goosecreekite,Ca(Si6Al2)O16·5H2O,"{""Ca"": 1.0, ""Si"": 6.0, ""Al"": 2.0, ""O"": 21.0, ""H"": 10.0}",608.611,#FFFFFF,monoclinic,{22},247.0
Gorceixite,BaAl3(PO4)(PO3OH)(OH)6,"{""Ba"": 1.0, ""Al"": 3.0, ""P"": 2.0, ""O"": 14.0, ""H"": 7.0}",511.266,#FFFFFF,hexagonal,"{32,36,47,48}",2772.0
Gordonite,MgAl2(PO4)2(OH)2·8H2O,"{""Mg"": 1.0, ""Al"": 2.0, ""P"": 2.0, ""O"": 18.0, ""H"": 18.0}",446.343,#FFFFFF,triclinic,"{21,31}",435.0
Gorerite,CaAlFe3+11O19,"{""Ca"": 1.0, ""Al"": 1.0, ""Fe"": 11.0, ""O"": 19.0}",985.336,#556B2F,hexagonal,{51},128.0
Gorgeyite,K2Ca5(SO4)6·H2O,"{""K"": 2.0, ""Ca"": 5.0, ""S"": 6.0, ""O"": 25.0, ""H"": 2.0}",872.937,#FFFFFF,monoclinic,"{25,50,54}",717.0
Gormanite,Fe2+3Al4(PO4)4(OH)6·2H2O,"{""Fe"": 3.0, ""Al"": 4.0, ""P"": 4.0, ""O"": 24.0, ""H"": 10.0}",793.415,#556B2F,triclinic,"{21,22,31}",682.0
Gortdrumite,Cu24Fe2Hg9S23,"{""Cu"": 24.0, ""Fe"": 2.0, ""Hg"": 9.0, ""S"": 23.0}",4179.484,#DAA520,orthorhombic,{33},797.0
Goryainovite,Ca2(PO4)Cl,"{""Ca"": 2.0, ""P"": 1.0, ""O"": 4.0, ""Cl"": 1.0}",210.576,#FFFFFF,orthorhombic,{35},726.0
Gottardiite,Na3Mg3Ca5Al19Si117O272·93H2O,"{""Na"": 3.0, ""Mg"": 3.0, ""Ca"": 5.0, ""Al"": 19.0, ""Si"": 117.0, ""O"": 365.0, ""H"": 186.0}",10168.001,#FFFFFF,orthorhombic,{10},107.0
Gottlobite,CaMg(VO4)(OH),"{""Ca"": 1.0, ""Mg"": 1.0, ""V"": 1.0, ""O"": 5.0, ""H"": 1.0}",196.328,#FFFFFF,orthorhombic,{47},1998.0
Gotzenite,Ca4NaCa2Ti(Si2O7)2(OF)F2,"{""Ca"": 6.0, ""Na"": 1.0, ""Ti"": 1.0, ""Si"": 4.0, ""O"": 15.0, ""F"": 3.0}",720.644,#FFFFFF,triclinic,{35},726.0
Goudeyite,Cu6Al(AsO4)3(OH)6·3H2O,"{""Cu"": 6.0, ""Al"": 1.0, ""As"": 3.0, ""O"": 21.0, ""H"": 12.0}",981.099,#FFFFFF,hexagonal,{47},1998.0
Gowerite,Ca[B5O8(OH)][B(OH)3]·3H2O,"{""Ca"": 1.0, ""B"": 6.0, ""O"": 15.0, ""H"": 10.0}",355.003,#FFFFFF,monoclinic,{47},1998.0
Goyazite,SrAl3(PO4)(PO3OH)(OH)6,"{""Sr"": 1.0, ""Al"": 3.0, ""P"": 2.0, ""O"": 14.0, ""H"": 7.0}",461.556,#FFFFFF,hexagonal,"{9,23,26,32,34,36,42,47,48}",4126.0
Graemite,Cu2+(Te4+O3)·H2O,"{""Cu"": 1.0, ""Te"": 1.0, ""O"": 4.0, ""H"": 2.0}",257.158,#FFFFFF,orthorhombic,{47},1998.0
Graeserite,Fe3+4Ti3As3+O13(OH),"{""Fe"": 4.0, ""Ti"": 3.0, ""As"": 1.0, ""O"": 14.0, ""H"": 1.0}",666.897,#556B2F,monoclinic,{47},1998.0
Graftonite,Fe2+Fe2+2(PO4)2,"{""Fe"": 3.0, ""P"": 2.0, ""O"": 8.0}",357.475,#8B4513,monoclinic,"{5,34,50,54}",1165.0
Graftonite-(Ca),CaFe2+2(PO4)2,"{""Ca"": 1.0, ""Fe"": 2.0, ""P"": 2.0, ""O"": 8.0}",341.708,#556B2F,monoclinic,{34},564.0
Grahampearsonite,Ca2P2O7,"{""Ca"": 2.0, ""P"": 2.0, ""O"": 7.0}",254.097,#FFFFFF,tetragonal,{},1.0
Grammatikopoulosite,NiVP,"{""Ni"": 1.0, ""V"": 1.0, ""P"": 1.0}",140.609,#7FFF00,orthorhombic,{38},108.0
Grandaite,Sr2Al(AsO4)2(OH),"{""Sr"": 2.0, ""Al"": 1.0, ""As"": 2.0, ""O"": 9.0, ""H"": 1.0}",497.065,#FFFFFF,monoclinic,{46},52.0
Grandidierite,MgAl3O2(BO3)(SiO4),"{""Mg"": 1.0, ""Al"": 3.0, ""O"": 9.0, ""B"": 1.0, ""Si"": 1.0}",288.137,#FFFFFF,orthorhombic,"{34,40}",883.0
Grandreefite,Pb2(SO4)F2,"{""Pb"": 2.0, ""S"": 1.0, ""O"": 4.0, ""F"": 2.0}",548.452,#FFFFFF,monoclinic,{47},1998.0
Grandviewite,Cu3Al2(SO4)(OH)10·H2O,"{""Cu"": 3.0, ""Al"": 2.0, ""S"": 1.0, ""O"": 15.0, ""H"": 12.0}",528.743,#FFFFFF,triclinic,{47},1998.0
Graphite,C,"{""C"": 1.0}",12.011,#FFFFFF,orthorhombic,"{1,4,5,6,7,19,29,33,34,38,40,50,54}",2936.0
Gratonite,Pb9As4S15,"{""Pb"": 9.0, ""As"": 4.0, ""S"": 15.0}",2645.388,#708090,hexagonal,{12},129.0
Grattarolaite,Fe3+3O3(PO4),"{""Fe"": 3.0, ""O"": 7.0, ""P"": 1.0}",310.502,#8B4513,hexagonal,"{50,54}",507.0
Graulichite-(Ce),CeFe3+3(AsO4)2(OH)6,"{""Ce"": 1.0, ""Fe"": 3.0, ""As"": 2.0, ""O"": 14.0, ""H"": 6.0}",687.533,#556B2F,hexagonal,"{34,47}",2562.0
Graulichite-(La),LaFe3+3(AsO4)2(OH)6,"{""La"": 1.0, ""Fe"": 3.0, ""As"": 2.0, ""O"": 14.0, ""H"": 6.0}",686.323,#556B2F,hexagonal,{47},1998.0
Greenlizardite,(NH4)Na(UO2)2(SO4)2(OH)2·4H2O,"{""N"": 1.0, ""H"": 14.0, ""Na"": 1.0, ""U"": 2.0, ""O"": 18.0, ""S"": 2.0}",879.271,#FFFFFF,triclinic,"{47,53,55}",2379.0
Greenockite,CdS,"{""Cd"": 1.0, ""S"": 1.0}",144.47,#A9A9A9,hexagonal,"{10,11,12,33,50,54}",1576.0
Gregoryite,Na2(CO3),"{""Na"": 2.0, ""C"": 1.0, ""O"": 3.0}",105.988,#FFFFFF,unknown,{36},291.0
Greifensteinite,Ca2Be4Fe2+5(PO4)6(OH)4·6H2O,"{""Ca"": 2.0, ""Be"": 4.0, ""Fe"": 5.0, ""P"": 6.0, ""O"": 34.0, ""H"": 16.0}",1141.3678,#556B2F,monoclinic,{34},564.0
Greigite,Fe2+Fe3+2S4,"{""Fe"": 3.0, ""S"": 4.0}",295.775,#DAA520,cubic,"{6,25,33,44,49}",1300.0
Grguricite,CaCr2(CO3)2(OH)4·4H2O,"{""Ca"": 1.0, ""Cr"": 2.0, ""C"": 2.0, ""O"": 14.0, ""H"": 12.0}",404.174,#FFFFFF,triclinic,{47},1998.0
Griceite,LiF,"{""Li"": 1.0, ""F"": 1.0}",25.938,#FFFFFF,cubic,{35},726.0
Griffinite,Al2TiO5,"{""Al"": 2.0, ""Ti"": 1.0, ""O"": 5.0}",181.826,#FFFFFF,orthorhombic,{51},128.0
Grigorievite,Cu3Fe3+2Al2(VO4)6,"{""Cu"": 3.0, ""Fe"": 2.0, ""Al"": 2.0, ""V"": 6.0, ""O"": 24.0}",1045.92,#556B2F,triclinic,{45},424.0
Grimaldiite,CrO(OH),"{""Cr"": 1.0, ""O"": 2.0, ""H"": 1.0}",85.002,#228B22,hexagonal,"{33,47}",2795.0
Grimmite,NiCo2S4,"{""Ni"": 1.0, ""Co"": 2.0, ""S"": 4.0}",304.799,#A9A9A9,cubic,{33},797.0
Grimselite,K3Na(UO2)(CO3)3·H2O,"{""K"": 3.0, ""Na"": 1.0, ""U"": 1.0, ""O"": 12.0, ""C"": 3.0, ""H"": 2.0}",608.351,#FFFFFF,hexagonal,{47},1998.0
Grokhovskyite,CuCrS2,"{""Cu"": 1.0, ""Cr"": 1.0, ""S"": 2.0}",179.662,#A9A9A9,hexagonal,{5},94.0
Grootfonteinite,Pb3O(CO3)2,"{""Pb"": 3.0, ""O"": 7.0, ""C"": 2.0}",757.615,#FFFFFF,hexagonal,{47},1998.0
Grossite,CaAl4O7,"{""Ca"": 1.0, ""Al"": 4.0, ""O"": 7.0}",259.999,#FFFFFF,monoclinic,"{3,51}",176.0
Grossular,Ca3Al2(SiO4)3,"{""Ca"": 3.0, ""Al"": 2.0, ""Si"": 3.0, ""O"": 12.0}",450.441,#FFFFFF,triclinic,"{6,10,31,40,50,54}",1494.0
Grumantite,NaSi2O4(OH)·H2O,"{""Na"": 1.0, ""Si"": 2.0, ""O"": 6.0, ""H"": 3.0}",178.178,#FFFFFF,orthorhombic,{35},726.0
Grumiplucite,HgBi2S4,"{""Hg"": 1.0, ""Bi"": 2.0, ""S"": 4.0}",746.79,#A9A9A9,monoclinic,{33},797.0
Grundmannite,CuBiSe2,"{""Cu"": 1.0, ""Bi"": 1.0, ""Se"": 2.0}",430.468,#00BFFF,orthorhombic,{33},797.0
Gruzdevite,Cu6Hg3Sb4S12,"{""Cu"": 6.0, ""Hg"": 3.0, ""Sb"": 4.0, ""S"": 12.0}",1854.806,#A9A9A9,hexagonal,{33},797.0
Guanacoite,Cu2Mg3(OH)4(AsO4)2·4H2O,"{""Cu"": 2.0, ""Mg"": 3.0, ""O"": 16.0, ""H"": 12.0, ""As"": 2.0}",617.931,#FFFFFF,monoclinic,{47},1998.0
Guanajuatite,Bi2Se3,"{""Bi"": 2.0, ""Se"": 3.0}",654.873,#D2B48C,orthorhombic,{33},797.0
Guangyuanite,Pb3Cl3(Se4+O3)(OH),"{""Pb"": 3.0, ""Cl"": 3.0, ""Se"": 1.0, ""O"": 4.0, ""H"": 1.0}",871.925,#FFFFFF,orthorhombic,{},1.0
Guanine,C5H3(NH2)N4O,"{""C"": 5.0, ""H"": 5.0, ""N"": 5.0, ""O"": 1.0}",151.129,#FFFFFF,monoclinic,{52},72.0
Guastoniite-(Y),Pb4(YCa)(Si8B4O28)F,"{""Pb"": 4.0, ""Y"": 1.0, ""Ca"": 1.0, ""Si"": 8.0, ""B"": 4.0, ""O"": 28.0, ""F"": 1.0}",1692.674,#FFFFFF,triclinic,{},1.0
Gudmundite,FeSbS,"{""Fe"": 1.0, ""Sb"": 1.0, ""S"": 1.0}",209.665,#DAA520,monoclinic,{33},797.0
Guettardite,PbSbAsS4,"{""Pb"": 1.0, ""Sb"": 1.0, ""As"": 1.0, ""S"": 4.0}",532.122,#708090,monoclinic,{33},797.0
Gugiaite,Ca2BeSi2O7,"{""Ca"": 2.0, ""Be"": 1.0, ""Si"": 2.0, ""O"": 7.0}",257.3312,#FFFFFF,tetragonal,"{31,34}",920.0