name,formula,elements,density,color,crystal
Osumilite,KFe2(Al5Si10)O30,"{""K"": 1.0, ""Fe"": 2.0, ""Al"": 5.0, ""Si"": 10.0, ""O"": 30.0}",1046.518,#556B2F,hexagonal
Osumilite-(Mg),KMg2Al3(Al2Si10)O30,"{""K"": 1.0, ""Mg"": 2.0, ""Al"": 5.0, ""Si"": 10.0, ""O"": 30.0}",983.438,#FFFFFF,hexagonal
Oswaldpeetersite,(UO2)2(CO3)(OH)2·4H2O,"{""U"": 2.0, ""O"": 13.0, ""C"": 1.0, ""H"": 10.0}",706.138,#FFFFFF,monoclinic
Otavite,Cd(CO3),"{""Cd"": 1.0, ""C"": 1.0, ""O"": 3.0}",172.418,#FFFFFF,hexagonal
Otjisumeite,PbGe4O9,"{""Pb"": 1.0, ""Ge"": 4.0, ""O"": 9.0}",641.711,#FFFFFF,triclinic
Ottensite,Na3(Sb2O3)3(SbS3)·3H2O,"{""Na"": 3.0, ""Sb"": 7.0, ""O"": 12.0, ""S"": 3.0, ""H"": 6.0}",1215.506,#FFFFFF,hexagonal
Ottoite,Pb2TeO5,"{""Pb"": 2.0, ""Te"": 1.0, ""O"": 5.0}",621.995,#FFFFFF,monoclinic
Otwayite,Ni2(CO3)(OH)2·H2O,"{""Ni"": 2.0, ""C"": 1.0, ""O"": 6.0, ""H"": 4.0}",229.423,#FFFFFF,orthorhombic
Ourayite,Ag3Pb4Bi5S13,"{""Ag"": 3.0, ""Pb"": 4.0, ""Bi"": 5.0, ""S"": 13.0}",2614.09,#708090,orthorhombic
Oursinite,Co(UO2)2(SiO3OH)2·6H2O,"{""Co"": 1.0, ""U"": 2.0, ""O"": 18.0, ""Si"": 2.0, ""H"": 14.0}",893.257,#FFFFFF,orthorhombic
Ovamboite,Cu10Fe3WGe3S16,"{""Cu"": 10.0, ""Fe"": 3.0, ""W"": 1.0, ""Ge"": 3.0, ""S"": 16.0}",1717.685,#DAA520,cubic
Overite,CaMgAl(PO4)2(OH)·4H2O,"{""Ca"": 1.0, ""Mg"": 1.0, ""Al"": 1.0, ""P"": 2.0, ""O"": 13.0, ""H"": 9.0}",370.372,#FFFFFF,orthorhombic
Owyheeite,Ag3Pb10Sb11S28,"{""Ag"": 3.0, ""Pb"": 10.0, ""Sb"": 11.0, ""S"": 28.0}",4632.65,#708090,monoclinic
Oxammite,(NH4)2(C2O4)·H2O,"{""N"": 2.0, ""H"": 10.0, ""C"": 2.0, ""O"": 5.0}",142.111,#FFFFFF,orthorhombic
Oxo-magnesio-hastingsite,NaCa2(Mg2Fe3+3)(Si6Al2)O22O2,"{""Na"": 1.0, ""Ca"": 2.0, ""Mg"": 2.0, ""Fe"": 3.0, ""Si"": 6.0, ""Al"": 2.0, ""O"": 24.0}",925.741,#556B2F,monoclinic
Oxycalciomicrolite,Ca2Ta2O7,"{""Ca"": 2.0, ""Ta"": 2.0, ""O"": 7.0}",554.049,#FFFFFF,cubic
Oxycalciopyrochlore,Ca2Nb2O6O,"{""Ca"": 2.0, ""Nb"": 2.0, ""O"": 7.0}",377.961,#FFFFFF,cubic
Oxycalcioromeite,Ca2Sb5+2O7,"{""Ca"": 2.0, ""Sb"": 2.0, ""O"": 7.0}",435.669,#A9A9A9,cubic
Oxy-chromium-dravite,NaCr3(Cr4Mg2)(Si6O18)(BO3)3(OH)3O,"{""Na"": 1.0, ""Cr"": 7.0, ""Mg"": 2.0, ""Si"": 6.0, ""O"": 31.0, ""B"": 3.0, ""H"": 3.0}",1135.505,#FFFFFF,hexagonal
Oxy-dravite,Na(Al2Mg)(Al5Mg)(Si6O18)(BO3)3(OH)3O,"{""Na"": 1.0, ""Al"": 7.0, ""Mg"": 2.0, ""Si"": 6.0, ""O"": 31.0, ""B"": 3.0, ""H"": 3.0}",960.407,#FFFFFF,hexagonal
Oxykinoshitalite,BaMg2Ti4+O2(Si2Al2)O10,"{""Ba"": 1.0, ""Mg"": 2.0, ""Ti"": 1.0, ""O"": 12.0, ""Si"": 2.0, ""Al"": 2.0}",535.929,#FFFFFF,monoclinic
Oxyplumbopyrochlore,Pb2Nb2O6O,"{""Pb"": 2.0, ""Nb"": 2.0, ""O"": 7.0}",712.205,#FFFFFF,cubic
Oxyplumboromeite,Pb2Sb2O7,"{""Pb"": 2.0, ""Sb"": 2.0, ""O"": 7.0}",769.913,#A9A9A9,cubic
Oxy-schorl,Na(Fe2+2Al)Al6(Si6O18)(BO3)3(OH)3O,"{""Na"": 1.0, ""Fe"": 2.0, ""Al"": 7.0, ""Si"": 6.0, ""O"": 31.0, ""B"": 3.0, ""H"": 3.0}",1023.487,#556B2F,hexagonal
Oxy-vanadium-dravite,NaV3(V4Mg2)(Si6O18)(BO3)3(OH)3O,"{""Na"": 1.0, ""V"": 7.0, ""Mg"": 2.0, ""Si"": 6.0, ""O"": 31.0, ""B"": 3.0, ""H"": 3.0}",1128.127,#FFFFFF,hexagonal
Oxyvanite,V3+2V4+O5,"{""V"": 3.0, ""O"": 5.0}",232.821,#FFFFFF,monoclinic
Oxyyttrobetafite-(Y),Y2Ti2O6O,"{""Y"": 2.0, ""Ti"": 2.0, ""O"": 7.0}",385.539,#FFFFFF,cubic
Oyelite,Ca5BSi4O13(OH)3·4H2O,"{""Ca"": 5.0, ""B"": 1.0, ""Si"": 4.0, ""O"": 20.0, ""H"": 11.0}",654.608,#FFFFFF,orthorhombic
Ozernovskite,Fe3+4(Te4+O4)(Te4+O3)4·7H2O,"{""Fe"": 4.0, ""Te"": 5.0, ""O"": 23.0, ""H"": 14.0}",1243.469,#556B2F,monoclinic
Ozerovaite,Na2KAl3(AsO4)4,"{""Na"": 2.0, ""K"": 1.0, ""Al"": 3.0, ""As"": 4.0, ""O"": 16.0}",721.696,#FFFFFF,orthorhombic
Paakkonenite,Sb2AsS2,"{""Sb"": 2.0, ""As"": 1.0, ""S"": 2.0}",382.562,#FFD700,monoclinic
Pabellondepicaite,Cu2+2(N3C2H2)2(NH3)2(NO3)Cl·2H2O,"{""Cu"": 2.0, ""N"": 9.0, ""C"": 4.0, ""H"": 14.0, ""O"": 5.0, ""Cl"": 1.0}",430.756,#FFFFFF,orthorhombic
Paceite,CaCu(CH3COO)4·6H2O,"{""Ca"": 1.0, ""Cu"": 1.0, ""C"": 8.0, ""H"": 24.0, ""O"": 14.0}",447.89,#FFFFFF,tetragonal
Pachnolite,NaCaAlF6·H2O,"{""Na"": 1.0, ""Ca"": 1.0, ""Al"": 1.0, ""F"": 6.0, ""H"": 2.0, ""O"": 1.0}",222.053,#FFFFFF,monoclinic
Packratite,Ca11(As3+V5+10V4+2As5+6O51)2·83H2O,"{""Ca"": 11.0, ""As"": 14.0, ""V"": 24.0, ""O"": 185.0, ""H"": 166.0}",5839.517,#FFFFFF,triclinic
Paddlewheelite,MgCa5Cu2(UO2)4(CO3)12(H2O)33,"{""Mg"": 1.0, ""Ca"": 5.0, ""Cu"": 2.0, ""U"": 4.0, ""O"": 77.0, ""C"": 12.0, ""H"": 66.0}",2746.49,#FFFFFF,monoclinic
Padmaite,PdBiSe,"{""Pd"": 1.0, ""Bi"": 1.0, ""Se"": 1.0}",394.371,#D2B48C,cubic
Paganoite,NiBi3+O(AsO4),"{""Ni"": 1.0, ""Bi"": 1.0, ""O"": 5.0, ""As"": 1.0}",422.59,#FFFFFF,triclinic
Painite,CaZrAl9O15(BO3),"{""Ca"": 1.0, ""Zr"": 1.0, ""Al"": 9.0, ""O"": 18.0, ""B"": 1.0}",672.932,#FFFFFF,hexagonal
Pakhomovskyite,Co3(PO4)2·8H2O,"{""Co"": 3.0, ""P"": 2.0, ""O"": 16.0, ""H"": 16.0}",510.859,#FFFFFF,monoclinic
Palermoite,Li2SrAl4(PO4)4(OH)4,"{""Li"": 2.0, ""Sr"": 1.0, ""Al"": 4.0, ""P"": 4.0, ""O"": 20.0, ""H"": 4.0}",657.336,#FFFFFF,orthorhombic
Palladinite,PdO,"{""Pd"": 1.0, ""O"": 1.0}",122.419,#FFFFFF,tetragonal
Palladium,Pd,"{""Pd"": 1.0}",106.42,#FFFFFF,cubic
Palladoarsenide,Pd2As,"{""Pd"": 2.0, ""As"": 1.0}",287.762,#808080,monoclinic
Palladodymite,Pd2As,"{""Pd"": 2.0, ""As"": 1.0}",287.762,#808080,orthorhombic
Palladogermanide,Pd2Ge,"{""Pd"": 2.0, ""Ge"": 1.0}",285.47,#FFFFFF,hexagonal
Palladosilicide,Pd2Si,"{""Pd"": 2.0, ""Si"": 1.0}",240.925,#FFFFFF,hexagonal
Palladothallite,Pd3Tl,"{""Pd"": 3.0, ""Tl"": 1.0}",523.64,#FFFFFF,tetragonal
Palladseite,Pd17Se15,"{""Pd"": 17.0, ""Se"": 15.0}",2993.705,#FFFFFF,cubic
Palmierite,K2Pb(SO4)2,"{""K"": 2.0, ""Pb"": 1.0, ""S"": 2.0, ""O"": 8.0}",477.508,#FFFFFF,hexagonal
Pampaloite,AuSbTe,"{""Au"": 1.0, ""Sb"": 1.0, ""Te"": 1.0}",446.33,#FFD700,monoclinic
Panasqueiraite,CaMg(PO4)(OH),"{""Ca"": 1.0, ""Mg"": 1.0, ""P"": 1.0, ""O"": 5.0, ""H"": 1.0}",176.36,#FFFFFF,monoclinic
Pandoraite-Ba,BaV4+5V5+2O16·3H2O,"{""Ba"": 1.0, ""V"": 7.0, ""O"": 19.0, ""H"": 6.0}",803.953,#FFFFFF,monoclinic
Pandoraite-Ca,CaV4+5V5+2O16·3H2O,"{""Ca"": 1.0, ""V"": 7.0, ""O"": 19.0, ""H"": 6.0}",706.701,#FFFFFF,monoclinic
Panskyite,Pd9Ag2Pb2S4,"{""Pd"": 9.0, ""Ag"": 2.0, ""Pb"": 2.0, ""S"": 4.0}",1716.16,#708090,tetragonal
Pansnerite,K3Na3Fe3+6(AsO4)8,"{""K"": 3.0, ""Na"": 3.0, ""Fe"": 6.0, ""As"": 8.0, ""O"": 32.0}",1632.678,#556B2F,orthorhombic
Panunzite,K3Na(AlSiO4)4,"{""K"": 3.0, ""Na"": 1.0, ""Al"": 4.0, ""Si"": 4.0, ""O"": 16.0}",616.536,#FFFFFF,hexagonal
Papagoite,CaCuAlSi2O6(OH)3,"{""Ca"": 1.0, ""Cu"": 1.0, ""Al"": 1.0, ""Si"": 2.0, ""O"": 9.0, ""H"": 3.0}",333.791,#FFFFFF,monoclinic
Papikeite,NaFe2+2(Mg3Al2)(Si5Al3)O22(OH)2,"{""Na"": 1.0, ""Fe"": 2.0, ""Mg"": 3.0, ""Al"": 5.0, ""Si"": 5.0, ""O"": 24.0, ""H"": 2.0}",868.922,#556B2F,orthorhombic
Para-alumohydrocalcite,CaAl2(CO3)2(OH)4·6H2O,"{""Ca"": 1.0, ""Al"": 2.0, ""C"": 2.0, ""O"": 16.0, ""H"": 16.0}",390.176,#FFFFFF,
Paraberzeliite,NaCaCaMg2(AsO4)3,"{""Na"": 1.0, ""Ca"": 2.0, ""Mg"": 2.0, ""As"": 3.0, ""O"": 12.0}",568.51,#FFFFFF,monoclinic
Parabutlerite,Fe3+(SO4)(OH)·2H2O,"{""Fe"": 1.0, ""S"": 1.0, ""O"": 7.0, ""H"": 5.0}",204.938,#556B2F,orthorhombic
Paracelsian,Ba(Al2Si2O8),"{""Ba"": 1.0, ""Al"": 2.0, ""Si"": 2.0, ""O"": 8.0}",375.456,#FFFFFF,orthorhombic
Paracoquimbite,Fe3+4(SO4)6(H2O)12·6H2O,"{""Fe"": 4.0, ""S"": 6.0, ""O"": 42.0, ""H"": 36.0}",1123.986,#556B2F,hexagonal
Paracostibite,CoSbS,"{""Co"": 1.0, ""Sb"": 1.0, ""S"": 1.0}",212.753,#A9A9A9,orthorhombic
Paradimorphite,As4S3,"{""As"": 4.0, ""S"": 3.0}",395.868,#FFD700,orthorhombic
Paraershovite,Na3K3Fe3+2(Si4O10OH)2(OH)2(H2O)4,"{""Na"": 3.0, ""K"": 3.0, ""Fe"": 2.0, ""Si"": 8.0, ""O"": 28.0, ""H"": 12.0}",982.702,#556B2F,triclinic
Parafransoletite,Ca3Be2(PO4)2(PO3OH)2·4H2O,"{""Ca"": 3.0, ""Be"": 2.0, ""P"": 4.0, ""O"": 20.0, ""H"": 10.0}",592.2144,#FFFFFF,triclinic
Parageorgbokiite,Cu5O2(SeO3)2Cl2,"{""Cu"": 5.0, ""O"": 8.0, ""Se"": 2.0, ""Cl"": 2.0}",674.564,#FFFFFF,monoclinic
Paragersdorffite,NiAsS,"{""Ni"": 1.0, ""As"": 1.0, ""S"": 1.0}",165.675,#FFD700,cubic
Paragonite,NaAl2(Si3Al)O10(OH)2,"{""Na"": 1.0, ""Al"": 3.0, ""Si"": 3.0, ""O"": 12.0, ""H"": 2.0}",382.195,#FFFFFF,monoclinic
Paraguanajuatite,Bi2Se3,"{""Bi"": 2.0, ""Se"": 3.0}",654.873,#D2B48C,hexagonal
Parahibbingite,Fe2+2(OH)3Cl,"{""Fe"": 2.0, ""O"": 3.0, ""H"": 3.0, ""Cl"": 1.0}",198.161,#556B2F,hexagonal
Parakeldyshite,Na2ZrSi2O7,"{""Na"": 2.0, ""Zr"": 1.0, ""Si"": 2.0, ""O"": 7.0}",305.367,#FFFFFF,triclinic
Paralammerite,Cu3(AsO4)2,"{""Cu"": 3.0, ""As"": 2.0, ""O"": 8.0}",468.474,#00BFFF,monoclinic
Paralaurionite,PbCl(OH),"{""Pb"": 1.0, ""Cl"": 1.0, ""O"": 1.0, ""H"": 1.0}",259.657,#FFFFFF,monoclinic
Paralstonite,BaCa(CO3)2,"{""Ba"": 1.0, ""Ca"": 1.0, ""C"": 2.0, ""O"": 6.0}",297.424,#FFFFFF,hexagonal
Paramarkeyite,Ca2(UO2)(CO3)3·5H2O,"{""Ca"": 2.0, ""U"": 1.0, ""O"": 16.0, ""C"": 3.0, ""H"": 10.0}",620.283,#FFFFFF,monoclinic
Paramelaconite,Cu1+2Cu2+2O3,"{""Cu"": 4.0, ""O"": 3.0}",302.181,#00BFFF,tetragonal
Paramendozavilite,NaAl4Fe7(PO4)5(PMo12O40)(OH)16·56H2O,"{""Na"": 1.0, ""Al"": 4.0, ""Fe"": 7.0, ""P"": 6.0, ""O"": 132.0, ""Mo"": 12.0, ""H"": 128.0}",4099.969,#556B2F,
Paramolybdomenite,PbSeO3,"{""Pb"": 1.0, ""Se"": 1.0, ""O"": 3.0}",334.168,#FFFFFF,monoclinic
Paramontroseite,VO2,"{""V"": 1.0, ""O"": 2.0}",82.94,#FFFFFF,orthorhombic
Paranatisite,Na2TiO(SiO4),"{""Na"": 2.0, ""Ti"": 1.0, ""O"": 5.0, ""Si"": 1.0}",201.927,#FFFFFF,orthorhombic
Paranatrolite,Na2(Si3Al2)O10·3H2O,"{""Na"": 2.0, ""Si"": 3.0, ""Al"": 2.0, ""O"": 13.0, ""H"": 6.0}",398.234,#FFFFFF,monoclinic
Parapierrotite,TlSb5S8,"{""Tl"": 1.0, ""Sb"": 5.0, ""S"": 8.0}",1069.66,#A9A9A9,monoclinic
Pararaisaite,CuMg[Te6+O4(OH)2]·6H2O,"{""Cu"": 1.0, ""Mg"": 1.0, ""Te"": 1.0, ""O"": 12.0, ""H"": 14.0}",421.551,#FFFFFF,monoclinic
Pararammelsbergite,NiAs2,"{""Ni"": 1.0, ""As"": 2.0}",208.537,#7FFF00,orthorhombic
Pararealgar,As4S4,"{""As"": 4.0, ""S"": 4.0}",427.928,#FFD700,monoclinic
Pararsenolamprite,As,"{""As"": 1.0}",74.922,#808080,orthorhombic
Parascandolaite,KMgF3,"{""K"": 1.0, ""Mg"": 1.0, ""F"": 3.0}",120.397,#FFFFFF,cubic
Paraschachnerite,Ag3Hg2,"{""Ag"": 3.0, ""Hg"": 2.0}",724.79,#C0C0C0,orthorhombic
Parascorodite,Fe3+(AsO4)·2H2O,"{""Fe"": 1.0, ""As"": 1.0, ""O"": 6.0, ""H"": 4.0}",230.793,#556B2F,hexagonal
Parasibirskite,Ca2B2O5·H2O,"{""Ca"": 2.0, ""B"": 2.0, ""O"": 6.0, ""H"": 2.0}",199.786,#FFFFFF,monoclinic
Parasymplesite,Fe2+3(AsO4)2·8H2O,"{""Fe"": 3.0, ""As"": 2.0, ""O"": 16.0, ""H"": 16.0}",589.491,#556B2F,monoclinic
Paratellurite,TeO2,"{""Te"": 1.0, ""O"": 2.0}",159.598,#FFFFFF,tetragonal
Paratimroseite,Pb2Cu4(TeO6)2(H2O)2,"{""Pb"": 2.0, ""Cu"": 4.0, ""Te"": 2.0, ""O"": 14.0, ""H"": 4.0}",1151.802,#FFFFFF,orthorhombic
Paraumbite,K3Zr2H(Si3O9)2·3H2O,"{""K"": 3.0, ""Zr"": 2.0, ""H"": 7.0, ""Si"": 6.0, ""O"": 21.0}",811.287,#FFFFFF,orthorhombic
Parauranophane,Ca(UO2)2(SiO3OH)2·5H2O,"{""Ca"": 1.0, ""U"": 2.0, ""O"": 17.0, ""Si"": 2.0, ""H"": 12.0}",856.387,#FFFFFF,monoclinic
Paravauxite,Fe2+Al2(PO4)2(OH)2·8H2O,"{""Fe"": 1.0, ""Al"": 2.0, ""P"": 2.0, ""O"": 18.0, ""H"": 18.0}",477.883,#556B2F,triclinic
Parawulffite,K5Na3Cu8O4(SO4)8,"{""K"": 5.0, ""Na"": 3.0, ""Cu"": 8.0, ""O"": 36.0, ""S"": 8.0}",1605.272,#FFFFFF,monoclinic
Pargasite,NaCa2(Mg4Al)(Si6Al2)O22(OH)2,"{""Na"": 1.0, ""Ca"": 2.0, ""Mg"": 4.0, ""Al"": 3.0, ""Si"": 6.0, ""O"": 24.0, ""H"": 2.0}",835.814,#FFFFFF,monoclinic
Parisite-(Ce),CaCe2(CO3)3F2,"{""Ca"": 1.0, ""Ce"": 2.0, ""C"": 3.0, ""O"": 9.0, ""F"": 2.0}",538.338,#FFFFFF,monoclinic
Parisite-(La),CaLa2(CO3)3F2,"{""Ca"": 1.0, ""La"": 2.0, ""C"": 3.0, ""O"": 9.0, ""F"": 2.0}",535.918,#FFFFFF,monoclinic
Parisite-(Nd),CaNd2(CO3)3F2,"{""Ca"": 1.0, ""Nd"": 2.0, ""C"": 3.0, ""O"": 9.0, ""F"": 2.0}",546.578,#FFFFFF,monoclinic
Parkinsonite,Pb7MoO9Cl2,"{""Pb"": 7.0, ""Mo"": 1.0, ""O"": 9.0, ""Cl"": 2.0}",1761.241,#FFFFFF,tetragonal
Parnauite,Cu9(AsO4)2(SO4)(OH)10·7H2O,"{""Cu"": 9.0, ""As"": 2.0, ""O"": 29.0, ""S"": 1.0, ""H"": 24.0}",1241.981,#FFFFFF,monoclinic
Parsonsite,Pb2(UO2)(PO4)2,"{""Pb"": 2.0, ""U"": 1.0, ""O"": 10.0, ""P"": 2.0}",874.368,#FFFFFF,triclinic
Partheite,Ca2(Si4Al4)O15(OH)2·4H2O,"{""Ca"": 2.0, ""Si"": 4.0, ""Al"": 4.0, ""O"": 21.0, ""H"": 10.0}",646.483,#FFFFFF,monoclinic
Parwanite,NaMg4Al8(PO4)8(CO3)(OH)7·30H2O,"{""Na"": 1.0, ""Mg"": 4.0, ""Al"": 8.0, ""P"": 8.0, ""O"": 72.0, ""C"": 1.0, ""H"": 67.0}",1815.333,#FFFFFF,monoclinic
Pasavaite,Pd3Pb2Te2,"{""Pd"": 3.0, ""Pb"": 2.0, ""Te"": 2.0}",988.86,#FFFFFF,orthorhombic
Pascoite,Ca3V5+10O28·17H2O,"{""Ca"": 3.0, ""V"": 10.0, ""O"": 45.0, ""H"": 34.0}",1383.881,#FFFFFF,monoclinic
Patronite,VS4,"{""V"": 1.0, ""S"": 4.0}",179.182,#A9A9A9,monoclinic
Pattersonite,PbFe3(PO4)2(OH)5·H2O,"{""Pb"": 1.0, ""Fe"": 3.0, ""P"": 2.0, ""O"": 14.0, ""H"": 7.0}",667.725,#556B2F,triclinic
Patynite,NaKCa4[Si9O23],"{""Na"": 1.0, ""K"": 1.0, ""Ca"": 4.0, ""Si"": 9.0, ""O"": 23.0}",843.142,#FFFFFF,triclinic
Pauflerite,VO(SO4),"{""V"": 1.0, ""O"": 5.0, ""S"": 1.0}",162.997,#FFFF00,orthorhombic
Pauladamsite,Cu4(SeO3)(SO4)(OH)4·2H2O,"{""Cu"": 4.0, ""Se"": 1.0, ""O"": 13.0, ""S"": 1.0, ""H"": 8.0}",581.266,#FFFFFF,triclinic
Paulgrothite,Cu9Fe3+O4(PO4)4Cl,"{""Cu"": 9.0, ""Fe"": 1.0, ""O"": 20.0, ""P"": 4.0, ""Cl"": 1.0}",1107.085,#556B2F,orthorhombic
Paulkellerite,Bi3+2Fe3+O2(PO4)(OH)2,"{""Bi"": 2.0, ""Fe"": 1.0, ""O"": 8.0, ""P"": 1.0, ""H"": 2.0}",634.787,#556B2F,monoclinic
Paulkerrite,[(H2O)K]Mg2(Fe3+2Ti)(PO4)4(OF)(H2O)10·4H2O,"{""H"": 30.0, ""O"": 32.0, ""K"": 1.0, ""Mg"": 2.0, ""Fe"": 2.0, ""Ti"": 1.0, ""P"": 4.0, ""F"": 1.0}",932.367,#556B2F,orthorhombic
Paulmooreite,Pb2As3+2O5,"{""Pb"": 2.0, ""As"": 2.0, ""O"": 5.0}",644.239,#808080,monoclinic
Pauloabibite,NaNbO3,"{""Na"": 1.0, ""Nb"": 1.0, ""O"": 3.0}",163.893,#FFFFFF,hexagonal
Paulrobinsonite,Ti8Fe4O2,"{""Ti"": 8.0, ""Fe"": 4.0, ""O"": 2.0}",638.314,#8B4513,cubic
Paulscherrerite,(UO2)(OH)2,"{""U"": 1.0, ""O"": 4.0, ""H"": 2.0}",304.042,#ADFF2F,orthorhombic
Pautovite,CsFe2S3,"{""Cs"": 1.0, ""Fe"": 2.0, ""S"": 3.0}",340.78,#DAA520,orthorhombic
Pavlovskyite,Ca8(SiO4)2(Si3O10),"{""Ca"": 8.0, ""Si"": 5.0, ""O"": 18.0}",749.031,#FFFFFF,orthorhombic
Pavonite,AgBi3S5,"{""Ag"": 1.0, ""Bi"": 3.0, ""S"": 5.0}",895.11,#A9A9A9,monoclinic
Paxite,CuAs2,"{""Cu"": 1.0, ""As"": 2.0}",213.39,#00BFFF,monoclinic
Pecoraite,Ni3Si2O5(OH)4,"{""Ni"": 3.0, ""Si"": 2.0, ""O"": 9.0, ""H"": 4.0}",380.272,#FFFFFF,
Pectolite,NaCa2Si3O8(OH),"{""Na"": 1.0, ""Ca"": 2.0, ""Si"": 3.0, ""O"": 9.0, ""H"": 1.0}",332.4,#FFFFFF,triclinic
Peisleyite,Na3Al16(PO4)10(SO4)2(OH)17·20H2O,"{""Na"": 3.0, ""Al"": 16.0, ""P"": 10.0, ""O"": 85.0, ""S"": 2.0, ""H"": 57.0}",2291.913,#FFFFFF,triclinic
Pekoite,CuPbBi11S18,"{""Cu"": 1.0, ""Pb"": 1.0, ""Bi"": 11.0, ""S"": 18.0}",3146.606,#708090,orthorhombic
Pekovite,SrB2Si2O8,"{""Sr"": 1.0, ""B"": 2.0, ""Si"": 2.0, ""O"": 8.0}",293.402,#FFFFFF,orthorhombic
Peligotite,Na6(UO2)(SO4)4(H2O)4,"{""Na"": 6.0, ""U"": 1.0, ""O"": 22.0, ""S"": 4.0, ""H"": 8.0}",864.252,#FFFFFF,triclinic
Pellyite,Ba2CaFe2+2Si6O17,"{""Ba"": 2.0, ""Ca"": 1.0, ""Fe"": 2.0, ""Si"": 6.0, ""O"": 17.0}",866.921,#556B2F,orthorhombic
Penberthycroftite,[Al6(AsO4)3(OH)9(H2O)5]·8H2O,"{""Al"": 6.0, ""As"": 3.0, ""O"": 34.0, ""H"": 35.0}",965.904,#FFFFFF,monoclinic
Pendevilleite-(Y),Mg2Y3Al(UO2)2(CO3)7(OH)6(H2O)16,"{""Mg"": 2.0, ""Y"": 3.0, ""Al"": 1.0, ""U"": 2.0, ""O"": 47.0, ""C"": 7.0, ""H"": 38.0}",1692.704,#FFFFFF,triclinic
Penfieldite,Pb2Cl3(OH),"{""Pb"": 2.0, ""Cl"": 3.0, ""O"": 1.0, ""H"": 1.0}",537.757,#FFFFFF,hexagonal
Pengite,(Pb8Sb3+3)Sb5+9O35,"{""Pb"": 8.0, ""Sb"": 12.0, ""O"": 35.0}",3678.685,#A9A9A9,hexagonal
Penikisite,BaMg2Al2(PO4)3(OH)3,"{""Ba"": 1.0, ""Mg"": 2.0, ""Al"": 2.0, ""P"": 3.0, ""O"": 15.0, ""H"": 3.0}",575.835,#FFFFFF,monoclinic
Penkvilksite,Na2TiSi4O11·2H2O,"{""Na"": 2.0, ""Ti"": 1.0, ""Si"": 4.0, ""O"": 13.0, ""H"": 4.0}",418.206,#FFFFFF,monoclinic
Penobsquisite,Ca2Fe2+[B9O13(OH)6]Cl·4H2O,"{""Ca"": 2.0, ""Fe"": 1.0, ""B"": 9.0, ""O"": 23.0, ""H"": 14.0, ""Cl"": 1.0}",650.83,#556B2F,monoclinic
Penriceite,[Mg(H2O)6][Na(H2O)2Al3(PO4)2F6]·H2O,"{""Mg"": 1.0, ""H"": 18.0, ""O"": 17.0, ""Na"": 1.0, ""Al"": 3.0, ""P"": 2.0, ""F"": 6.0}",594.304,#FFFFFF,monoclinic
Pentagonite,CaV4+OSi4O10·4H2O,"{""Ca"": 1.0, ""V"": 1.0, ""O"": 15.0, ""Si"": 4.0, ""H"": 8.0}",451.409,#FFFFFF,orthorhombic
Pentahydrite,Mg(SO4)·5H2O,"{""Mg"": 1.0, ""S"": 1.0, ""O"": 9.0, ""H"": 10.0}",210.436,#FFFFFF,triclinic
Pentahydroborite,CaB2O(OH)6·2H2O,"{""Ca"": 1.0, ""B"": 2.0, ""O"": 9.0, ""H"": 10.0}",215.769,#FFFFFF,triclinic
Perboeite-(Ce),(CaCe3)(Al3Fe2+)(Si2O7)(SiO4)3O(OH)2,"{""Ca"": 1.0, ""Ce"": 3.0, ""Al"": 3.0, ""Fe"": 1.0, ""Si"": 5.0, ""O"": 22.0, ""H"": 2.0}",1091.648,#556B2F,monoclinic
Perboeite-(La),(CaLa3)(Al3Fe2+)[Si2O7][SiO4]3O(OH)2,"{""Ca"": 1.0, ""La"": 3.0, ""Al"": 3.0, ""Fe"": 1.0, ""Si"": 5.0, ""O"": 22.0, ""H"": 2.0}",1088.018,#556B2F,monoclinic
Perchiazziite,Co2(CO3)(OH)2,"{""Co"": 2.0, ""C"": 1.0, ""O"": 5.0, ""H"": 2.0}",211.888,#FFFFFF,monoclinic
Percleveite-(Ce),Ce2Si2O7,"{""Ce"": 2.0, ""Si"": 2.0, ""O"": 7.0}",448.403,#FFFFFF,tetragonal
Percleveite-(La),La2Si2O7,"{""La"": 2.0, ""Si"": 2.0, ""O"": 7.0}",445.983,#FFFFFF,tetragonal
Peretaite,CaSb3+4O4(SO4)2(OH)2·2H2O,"{""Ca"": 1.0, ""Sb"": 4.0, ""O"": 16.0, ""S"": 2.0, ""H"": 6.0}",853.27,#FFFFFF,monoclinic
Periclase,MgO,"{""Mg"": 1.0, ""O"": 1.0}",40.304,#FFFFFF,cubic
Perite,PbBiO2Cl,"{""Pb"": 1.0, ""Bi"": 1.0, ""O"": 2.0, ""Cl"": 1.0}",483.628,#FFFFFF,orthorhombic
Perlialite,K9NaCa(Si24Al12)O72·15H2O,"{""K"": 9.0, ""Na"": 1.0, ""Ca"": 1.0, ""Si"": 24.0, ""Al"": 12.0, ""O"": 87.0, ""H"": 30.0}",2834.927,#FFFFFF,hexagonal
Permingeatite,Cu3SbSe4,"{""Cu"": 3.0, ""Sb"": 1.0, ""Se"": 4.0}",628.282,#00BFFF,tetragonal
Perovskite,CaTiO3,"{""Ca"": 1.0, ""Ti"": 1.0, ""O"": 3.0}",135.942,#FFFFFF,cubic
Perrierite-(Ce),Ce4MgFe3+2Ti2O8(Si2O7)2,"{""Ce"": 4.0, ""Mg"": 1.0, ""Fe"": 2.0, ""Ti"": 2.0, ""O"": 22.0, ""Si"": 4.0}",1256.527,#556B2F,monoclinic
Pertoldite,GeO2,"{""Ge"": 1.0, ""O"": 2.0}",104.628,#FFFFFF,hexagonal
Pertsevite-(F),Mg2(BO3)F,"{""Mg"": 2.0, ""B"": 1.0, ""O"": 3.0, ""F"": 1.0}",126.415,#FFFFFF,orthorhombic
Pertsevite-(OH),Mg2(BO3)(OH),"{""Mg"": 2.0, ""B"": 1.0, ""O"": 4.0, ""H"": 1.0}",124.424,#FFFFFF,orthorhombic
Petalite,LiAlSi4O10,"{""Li"": 1.0, ""Al"": 1.0, ""Si"": 4.0, ""O"": 10.0}",306.252,#FFFFFF,monoclinic
Peterbaylissite,Hg3(CO3)(OH)·2H2O,"{""Hg"": 3.0, ""C"": 1.0, ""O"": 6.0, ""H"": 5.0}",714.815,#FFFFFF,orthorhombic
Petermegawite,Al6(Se4+O3)3[SiO3(OH)](OH)9·10H2O,"{""Al"": 6.0, ""Se"": 3.0, ""O"": 32.0, ""Si"": 1.0, ""H"": 30.0}",969.098,#FFFFFF,orthorhombic
Petersenite-(Ce),Na4Ce2(CO3)5,"{""Na"": 4.0, ""Ce"": 2.0, ""C"": 5.0, ""O"": 15.0}",672.24,#FFFFFF,monoclinic
Petersite-(Ce),Cu6Ce(PO4)3(OH)6·3H2O,"{""Cu"": 6.0, ""Ce"": 1.0, ""P"": 3.0, ""O"": 21.0, ""H"": 12.0}",962.393,#FFFFFF,hexagonal
Petersite-(La),Cu6La(PO4)3(OH)6·3H2O,"{""Cu"": 6.0, ""La"": 1.0, ""P"": 3.0, ""O"": 21.0, ""H"": 12.0}",961.183,#FFFFFF,hexagonal
Petersite-(Y),Cu6Y(PO4)3(OH)6·3H2O,"{""Cu"": 6.0, ""Y"": 1.0, ""P"": 3.0, ""O"": 21.0, ""H"": 12.0}",911.179,#FFFFFF,hexagonal
Petitjeanite,Bi3O(PO4)2(OH),"{""Bi"": 3.0, ""O"": 10.0, ""P"": 2.0, ""H"": 1.0}",849.886,#FFFFFF,triclinic
Petricekite,CuSe2,"{""Cu"": 1.0, ""Se"": 2.0}",221.488,#00BFFF,orthorhombic
Petrovicite,Cu3HgPbBiSe5,"{""Cu"": 3.0, ""Hg"": 1.0, ""Pb"": 1.0, ""Bi"": 1.0, ""Se"": 5.0}",1202.263,#FFFFFF,orthorhombic
Petrovite,Na12Cu2(SO4)8,"{""Na"": 12.0, ""Cu"": 2.0, ""S"": 8.0, ""O"": 32.0}",1171.42,#FFFFFF,monoclinic
Petrovskaite,AuAgS,"{""Au"": 1.0, ""Ag"": 1.0, ""S"": 1.0}",336.9,#A9A9A9,monoclinic
Petscheckite,U4+Fe2+Nb2O8,"{""U"": 1.0, ""Fe"": 1.0, ""Nb"": 2.0, ""O"": 8.0}",607.679,#556B2F,hexagonal
Petterdite,PbCr2(CO3)2(OH)4·H2O,"{""Pb"": 1.0, ""Cr"": 2.0, ""C"": 2.0, ""O"": 11.0, ""H"": 6.0}",517.251,#FFFFFF,orthorhombic
Petzite,Ag3AuTe2,"{""Ag"": 3.0, ""Au"": 1.0, ""Te"": 2.0}",775.78,#FFD700,cubic
Pezzottaite,CsLiBe2Al2Si6O18,"{""Cs"": 1.0, ""Li"": 1.0, ""Be"": 2.0, ""Al"": 2.0, ""Si"": 6.0, ""O"": 18.0}",668.3304,#FFFFFF,hexagonal