name,formula,elements,density,color,crystal,pm_ids,gacha_weight
Orlovite,KLi2Ti(Si4O10)(OF),"{""K"": 1.0, ""Li"": 2.0, ""Ti"": 1.0, ""Si"": 4.0, ""O"": 11.0, ""F"": 1.0}",408.172,#FFFFFF,monoclinic,{34},564.0
Orpiment,As2S3,"{""As"": 2.0, ""S"": 3.0}",246.024,#FFD700,monoclinic,"{11,12,14,33,47,49,50,54}",3605.0
Orschallite,Ca3(S4+O3)2(SO4)·12H2O,"{""Ca"": 3.0, ""S"": 3.0, ""O"": 22.0, ""H"": 24.0}",592.584,#FFFFFF,hexagonal,"{45,47,56}",2565.0
Orthobrannerite,U4+U6+Ti4O12(OH)2,"{""U"": 2.0, ""Ti"": 4.0, ""O"": 14.0, ""H"": 2.0}",893.53,#FFFFFF,orthorhombic,"{35,47}",2724.0
Orthoclase,K(AlSi3O8),"{""K"": 1.0, ""Al"": 1.0, ""Si"": 3.0, ""O"": 8.0}",278.327,#FFFFFF,triclinic,"{9,17,19,22,23,24,26,34,35,40}",2899.0
Orthocuproplatinum,Pt3Cu,"{""Pt"": 3.0, ""Cu"": 1.0}",648.786,#00BFFF,orthorhombic,{26},250.0
Orthogersdorffite,NiAsS,"{""Ni"": 1.0, ""As"": 1.0, ""S"": 1.0}",165.675,#FFD700,orthorhombic,"{33,37}",932.0
Orthominasragrite,V4+O(SO4)·5H2O,"{""V"": 1.0, ""O"": 10.0, ""S"": 1.0, ""H"": 10.0}",253.072,#FFFFFF,orthorhombic,"{47,53}",2115.0
Orthoserpierite,CaCu4(SO4)2(OH)6·3H2O,"{""Ca"": 1.0, ""Cu"": 4.0, ""S"": 2.0, ""O"": 17.0, ""H"": 12.0}",642.461,#FFFFFF,orthorhombic,"{47,55}",2262.0
Orthowalpurgite,(UO2)Bi4O4(AsO4)2·2H2O,"{""U"": 1.0, ""O"": 16.0, ""Bi"": 4.0, ""As"": 2.0, ""H"": 4.0}",1483.81,#FFFFFF,orthorhombic,{47},1998.0
Osarizawaite,Pb(Al2Cu2+)(SO4)2(OH)6,"{""Pb"": 1.0, ""Al"": 2.0, ""Cu"": 1.0, ""S"": 2.0, ""O"": 14.0, ""H"": 6.0}",618.864,#FFFFFF,hexagonal,{47},1998.0
Osarsite,OsAsS,"{""Os"": 1.0, ""As"": 1.0, ""S"": 1.0}",297.212,#FFD700,monoclinic,"{26,33,37}",1182.0
Osbornite,TiN,"{""Ti"": 1.0, ""N"": 1.0}",61.874,#FFFFFF,cubic,"{3,5,7,36,38}",664.0
Oscarkempffite,Ag10Pb4(Sb17Bi9)S48,"{""Ag"": 10.0, ""Pb"": 4.0, ""Sb"": 17.0, ""Bi"": 9.0, ""S"": 48.0}",7397.12,#708090,orthorhombic,{33},797.0
Oskarssonite,AlF3,"{""Al"": 1.0, ""F"": 3.0}",83.976,#FFFFFF,hexagonal,"{36,45}",715.0
Osmium,Os,"{""Os"": 1.0}",190.23,#FFFFFF,hexagonal,"{1,3,26,36,37,38}",854.0
Osumilite,KFe2(Al5Si10)O30,"{""K"": 1.0, ""Fe"": 2.0, ""Al"": 5.0, ""Si"": 10.0, ""O"": 30.0}",1046.518,#556B2F,hexagonal,"{9,10,20,26,40,50,54}",1355.0
Osumilite-(Mg),KMg2Al3(Al2Si10)O30,"{""K"": 1.0, ""Mg"": 2.0, ""Al"": 5.0, ""Si"": 10.0, ""O"": 30.0}",983.438,#FFFFFF,hexagonal,"{20,31}",401.0
Oswaldpeetersite,(UO2)2(CO3)(OH)2·4H2O,"{""U"": 2.0, ""O"": 13.0, ""C"": 1.0, ""H"": 10.0}",706.138,#FFFFFF,monoclinic,"{47,53}",2115.0
Otavite,Cd(CO3),"{""Cd"": 1.0, ""C"": 1.0, ""O"": 3.0}",172.418,#FFFFFF,hexagonal,{47},1998.0
Otjisumeite,PbGe4O9,"{""Pb"": 1.0, ""Ge"": 4.0, ""O"": 9.0}",641.711,#FFFFFF,triclinic,{47},1998.0
Ottensite,Na3(Sb2O3)3(SbS3)·3H2O,"{""Na"": 3.0, ""Sb"": 7.0, ""O"": 12.0, ""S"": 3.0, ""H"": 6.0}",1215.506,#FFFFFF,hexagonal,{47},1998.0
Ottoite,Pb2TeO5,"{""Pb"": 2.0, ""Te"": 1.0, ""O"": 5.0}",621.995,#FFFFFF,monoclinic,{47},1998.0
Otwayite,Ni2(CO3)(OH)2·H2O,"{""Ni"": 2.0, ""C"": 1.0, ""O"": 6.0, ""H"": 4.0}",229.423,#FFFFFF,orthorhombic,{47},1998.0
Ourayite,Ag3Pb4Bi5S13,"{""Ag"": 3.0, ""Pb"": 4.0, ""Bi"": 5.0, ""S"": 13.0}",2614.09,#708090,orthorhombic,{33},797.0
Oursinite,Co(UO2)2(SiO3OH)2·6H2O,"{""Co"": 1.0, ""U"": 2.0, ""O"": 18.0, ""Si"": 2.0, ""H"": 14.0}",893.257,#FFFFFF,orthorhombic,{47},1998.0
Ovamboite,Cu10Fe3WGe3S16,"{""Cu"": 10.0, ""Fe"": 3.0, ""W"": 1.0, ""Ge"": 3.0, ""S"": 16.0}",1717.685,#DAA520,cubic,{33},797.0
Overite,CaMgAl(PO4)2(OH)·4H2O,"{""Ca"": 1.0, ""Mg"": 1.0, ""Al"": 1.0, ""P"": 2.0, ""O"": 13.0, ""H"": 9.0}",370.372,#FFFFFF,orthorhombic,"{21,22}",326.0
Owyheeite,Ag3Pb10Sb11S28,"{""Ag"": 3.0, ""Pb"": 10.0, ""Sb"": 11.0, ""S"": 28.0}",4632.65,#708090,monoclinic,{33},797.0
Oxammite,(NH4)2(C2O4)·H2O,"{""N"": 2.0, ""H"": 10.0, ""C"": 2.0, ""O"": 5.0}",142.111,#FFFFFF,orthorhombic,"{52,53}",189.0
Oxo-magnesio-hastingsite,NaCa2(Mg2Fe3+3)(Si6Al2)O22O2,"{""Na"": 1.0, ""Ca"": 2.0, ""Mg"": 2.0, ""Fe"": 3.0, ""Si"": 6.0, ""Al"": 2.0, ""O"": 24.0}",925.741,#556B2F,monoclinic,{47},1998.0
Oxycalciomicrolite,Ca2Ta2O7,"{""Ca"": 2.0, ""Ta"": 2.0, ""O"": 7.0}",554.049,#FFFFFF,cubic,{34},564.0
Oxycalciopyrochlore,Ca2Nb2O6O,"{""Ca"": 2.0, ""Nb"": 2.0, ""O"": 7.0}",377.961,#FFFFFF,cubic,"{34,36}",855.0
Oxycalcioromeite,Ca2Sb5+2O7,"{""Ca"": 2.0, ""Sb"": 2.0, ""O"": 7.0}",435.669,#A9A9A9,cubic,{47},1998.0
Oxy-chromium-dravite,NaCr3(Cr4Mg2)(Si6O18)(BO3)3(OH)3O,"{""Na"": 1.0, ""Cr"": 7.0, ""Mg"": 2.0, ""Si"": 6.0, ""O"": 31.0, ""B"": 3.0, ""H"": 3.0}",1135.505,#FFFFFF,hexagonal,"{23,31}",754.0
Oxy-dravite,Na(Al2Mg)(Al5Mg)(Si6O18)(BO3)3(OH)3O,"{""Na"": 1.0, ""Al"": 7.0, ""Mg"": 2.0, ""Si"": 6.0, ""O"": 31.0, ""B"": 3.0, ""H"": 3.0}",960.407,#FFFFFF,hexagonal,"{19,23,26,34,40}",1674.0
Oxykinoshitalite,BaMg2Ti4+O2(Si2Al2)O10,"{""Ba"": 1.0, ""Mg"": 2.0, ""Ti"": 1.0, ""O"": 12.0, ""Si"": 2.0, ""Al"": 2.0}",535.929,#FFFFFF,monoclinic,{35},726.0
Oxyplumbopyrochlore,Pb2Nb2O6O,"{""Pb"": 2.0, ""Nb"": 2.0, ""O"": 7.0}",712.205,#FFFFFF,cubic,{},1.0
Oxyplumboromeite,Pb2Sb2O7,"{""Pb"": 2.0, ""Sb"": 2.0, ""O"": 7.0}",769.913,#A9A9A9,cubic,{47},1998.0
Oxy-schorl,Na(Fe2+2Al)Al6(Si6O18)(BO3)3(OH)3O,"{""Na"": 1.0, ""Fe"": 2.0, ""Al"": 7.0, ""Si"": 6.0, ""O"": 31.0, ""B"": 3.0, ""H"": 3.0}",1023.487,#556B2F,hexagonal,"{19,23,26,34,40}",1674.0
Oxy-vanadium-dravite,NaV3(V4Mg2)(Si6O18)(BO3)3(OH)3O,"{""Na"": 1.0, ""V"": 7.0, ""Mg"": 2.0, ""Si"": 6.0, ""O"": 31.0, ""B"": 3.0, ""H"": 3.0}",1128.127,#FFFFFF,hexagonal,"{23,31}",754.0
Oxyvanite,V3+2V4+O5,"{""V"": 3.0, ""O"": 5.0}",232.821,#FFFFFF,monoclinic,{53},117.0
Oxyyttrobetafite-(Y),Y2Ti2O6O,"{""Y"": 2.0, ""Ti"": 2.0, ""O"": 7.0}",385.539,#FFFFFF,cubic,{34},564.0
Oyelite,Ca5BSi4O13(OH)3·4H2O,"{""Ca"": 5.0, ""B"": 1.0, ""Si"": 4.0, ""O"": 20.0, ""H"": 11.0}",654.608,#FFFFFF,orthorhombic,"{23,47,51}",2524.0
Ozernovskite,Fe3+4(Te4+O4)(Te4+O3)4·7H2O,"{""Fe"": 4.0, ""Te"": 5.0, ""O"": 23.0, ""H"": 14.0}",1243.469,#556B2F,monoclinic,{47},1998.0
Ozerovaite,Na2KAl3(AsO4)4,"{""Na"": 2.0, ""K"": 1.0, ""Al"": 3.0, ""As"": 4.0, ""O"": 16.0}",721.696,#FFFFFF,orthorhombic,{45},424.0
Paakkonenite,Sb2AsS2,"{""Sb"": 2.0, ""As"": 1.0, ""S"": 2.0}",382.562,#FFD700,monoclinic,{33},797.0
Pabellondepicaite,Cu2+2(N3C2H2)2(NH3)2(NO3)Cl·2H2O,"{""Cu"": 2.0, ""N"": 9.0, ""C"": 4.0, ""H"": 14.0, ""O"": 5.0, ""Cl"": 1.0}",430.756,#FFFFFF,orthorhombic,{},1.0
Paceite,CaCu(CH3COO)4·6H2O,"{""Ca"": 1.0, ""Cu"": 1.0, ""C"": 8.0, ""H"": 24.0, ""O"": 14.0}",447.89,#FFFFFF,tetragonal,"{53,55}",381.0
Pachnolite,NaCaAlF6·H2O,"{""Na"": 1.0, ""Ca"": 1.0, ""Al"": 1.0, ""F"": 6.0, ""H"": 2.0, ""O"": 1.0}",222.053,#FFFFFF,monoclinic,"{34,47}",2562.0
Packratite,Ca11(As3+V5+10V4+2As5+6O51)2·83H2O,"{""Ca"": 11.0, ""As"": 14.0, ""V"": 24.0, ""O"": 185.0, ""H"": 166.0}",5839.517,#FFFFFF,triclinic,{47},1998.0
Paddlewheelite,MgCa5Cu2(UO2)4(CO3)12(H2O)33,"{""Mg"": 1.0, ""Ca"": 5.0, ""Cu"": 2.0, ""U"": 4.0, ""O"": 77.0, ""C"": 12.0, ""H"": 66.0}",2746.49,#FFFFFF,monoclinic,{47},1998.0
Padmaite,PdBiSe,"{""Pd"": 1.0, ""Bi"": 1.0, ""Se"": 1.0}",394.371,#D2B48C,cubic,{33},797.0
Paganoite,NiBi3+O(AsO4),"{""Ni"": 1.0, ""Bi"": 1.0, ""O"": 5.0, ""As"": 1.0}",422.59,#FFFFFF,triclinic,{47},1998.0
Painite,CaZrAl9O15(BO3),"{""Ca"": 1.0, ""Zr"": 1.0, ""Al"": 9.0, ""O"": 18.0, ""B"": 1.0}",672.932,#FFFFFF,hexagonal,"{23,26}",648.0
Pakhomovskyite,Co3(PO4)2·8H2O,"{""Co"": 3.0, ""P"": 2.0, ""O"": 16.0, ""H"": 16.0}",510.859,#FFFFFF,monoclinic,"{22,36}",538.0
Palermoite,Li2SrAl4(PO4)4(OH)4,"{""Li"": 2.0, ""Sr"": 1.0, ""Al"": 4.0, ""P"": 4.0, ""O"": 20.0, ""H"": 4.0}",657.336,#FFFFFF,orthorhombic,"{34,47}",2562.0
Palladinite,PdO,"{""Pd"": 1.0, ""O"": 1.0}",122.419,#FFFFFF,tetragonal,{47},1998.0
Palladium,Pd,"{""Pd"": 1.0}",106.42,#FFFFFF,cubic,"{26,36,37,38}",784.0
Palladoarsenide,Pd2As,"{""Pd"": 2.0, ""As"": 1.0}",287.762,#808080,monoclinic,"{26,33,37}",1182.0
Palladodymite,Pd2As,"{""Pd"": 2.0, ""As"": 1.0}",287.762,#808080,orthorhombic,"{26,33,37}",1182.0
Palladogermanide,Pd2Ge,"{""Pd"": 2.0, ""Ge"": 1.0}",285.47,#FFFFFF,hexagonal,"{26,37}",385.0
Palladosilicide,Pd2Si,"{""Pd"": 2.0, ""Si"": 1.0}",240.925,#FFFFFF,hexagonal,"{7,37}",258.0
Palladothallite,Pd3Tl,"{""Pd"": 3.0, ""Tl"": 1.0}",523.64,#FFFFFF,tetragonal,{37},135.0
Palladseite,Pd17Se15,"{""Pd"": 17.0, ""Se"": 15.0}",2993.705,#FFFFFF,cubic,"{26,33}",1047.0
Palmierite,K2Pb(SO4)2,"{""K"": 2.0, ""Pb"": 1.0, ""S"": 2.0, ""O"": 8.0}",477.508,#FFFFFF,hexagonal,"{45,47,56}",2565.0
Pampaloite,AuSbTe,"{""Au"": 1.0, ""Sb"": 1.0, ""Te"": 1.0}",446.33,#FFD700,monoclinic,{33},797.0
Panasqueiraite,CaMg(PO4)(OH),"{""Ca"": 1.0, ""Mg"": 1.0, ""P"": 1.0, ""O"": 5.0, ""H"": 1.0}",176.36,#FFFFFF,monoclinic,"{23,34}",962.0
Pandoraite-Ba,BaV4+5V5+2O16·3H2O,"{""Ba"": 1.0, ""V"": 7.0, ""O"": 19.0, ""H"": 6.0}",803.953,#FFFFFF,monoclinic,{47},1998.0
Pandoraite-Ca,CaV4+5V5+2O16·3H2O,"{""Ca"": 1.0, ""V"": 7.0, ""O"": 19.0, ""H"": 6.0}",706.701,#FFFFFF,monoclinic,{47},1998.0
Panskyite,Pd9Ag2Pb2S4,"{""Pd"": 9.0, ""Ag"": 2.0, ""Pb"": 2.0, ""S"": 4.0}",1716.16,#708090,tetragonal,{33},797.0
Pansnerite,K3Na3Fe3+6(AsO4)8,"{""K"": 3.0, ""Na"": 3.0, ""Fe"": 6.0, ""As"": 8.0, ""O"": 32.0}",1632.678,#556B2F,orthorhombic,{45},424.0
Panunzite,K3Na(AlSiO4)4,"{""K"": 3.0, ""Na"": 1.0, ""Al"": 4.0, ""Si"": 4.0, ""O"": 16.0}",616.536,#FFFFFF,hexagonal,"{9,35}",853.0
Papagoite,CaCuAlSi2O6(OH)3,"{""Ca"": 1.0, ""Cu"": 1.0, ""Al"": 1.0, ""Si"": 2.0, ""O"": 9.0, ""H"": 3.0}",333.791,#FFFFFF,monoclinic,{23},398.0
Papikeite,NaFe2+2(Mg3Al2)(Si5Al3)O22(OH)2,"{""Na"": 1.0, ""Fe"": 2.0, ""Mg"": 3.0, ""Al"": 5.0, ""Si"": 5.0, ""O"": 24.0, ""H"": 2.0}",868.922,#556B2F,orthorhombic,{},1.0
Para-alumohydrocalcite,CaAl2(CO3)2(OH)4·6H2O,"{""Ca"": 1.0, ""Al"": 2.0, ""C"": 2.0, ""O"": 16.0, ""H"": 16.0}",390.176,#FFFFFF,unknown,{47},1998.0
Paraberzeliite,NaCaCaMg2(AsO4)3,"{""Na"": 1.0, ""Ca"": 2.0, ""Mg"": 2.0, ""As"": 3.0, ""O"": 12.0}",568.51,#FFFFFF,monoclinic,{45},424.0
Parabutlerite,Fe3+(SO4)(OH)·2H2O,"{""Fe"": 1.0, ""S"": 1.0, ""O"": 7.0, ""H"": 5.0}",204.938,#556B2F,orthorhombic,"{47,55}",2262.0
Paracelsian,Ba(Al2Si2O8),"{""Ba"": 1.0, ""Al"": 2.0, ""Si"": 2.0, ""O"": 8.0}",375.456,#FFFFFF,orthorhombic,{32},412.0
Paracoquimbite,Fe3+4(SO4)6(H2O)12·6H2O,"{""Fe"": 4.0, ""S"": 6.0, ""O"": 42.0, ""H"": 36.0}",1123.986,#556B2F,hexagonal,"{46,47,50}",2323.0
Paracostibite,CoSbS,"{""Co"": 1.0, ""Sb"": 1.0, ""S"": 1.0}",212.753,#A9A9A9,orthorhombic,{33},797.0
Paradimorphite,As4S3,"{""As"": 4.0, ""S"": 3.0}",395.868,#FFD700,orthorhombic,{11},36.0
Paraershovite,Na3K3Fe3+2(Si4O10OH)2(OH)2(H2O)4,"{""Na"": 3.0, ""K"": 3.0, ""Fe"": 2.0, ""Si"": 8.0, ""O"": 28.0, ""H"": 12.0}",982.702,#556B2F,triclinic,{35},726.0
Parafransoletite,Ca3Be2(PO4)2(PO3OH)2·4H2O,"{""Ca"": 3.0, ""Be"": 2.0, ""P"": 4.0, ""O"": 20.0, ""H"": 10.0}",592.2144,#FFFFFF,triclinic,{22},247.0
Parageorgbokiite,Cu5O2(SeO3)2Cl2,"{""Cu"": 5.0, ""O"": 8.0, ""Se"": 2.0, ""Cl"": 2.0}",674.564,#FFFFFF,monoclinic,{45},424.0
Paragersdorffite,NiAsS,"{""Ni"": 1.0, ""As"": 1.0, ""S"": 1.0}",165.675,#FFD700,cubic,"{33,37}",932.0
Paragonite,NaAl2(Si3Al)O10(OH)2,"{""Na"": 1.0, ""Al"": 3.0, ""Si"": 3.0, ""O"": 12.0, ""H"": 2.0}",382.195,#FFFFFF,monoclinic,"{6,23,39,40}",992.0
Paraguanajuatite,Bi2Se3,"{""Bi"": 2.0, ""Se"": 3.0}",654.873,#D2B48C,hexagonal,"{31,33}",1153.0
Parahibbingite,Fe2+2(OH)3Cl,"{""Fe"": 2.0, ""O"": 3.0, ""H"": 3.0, ""Cl"": 1.0}",198.161,#556B2F,hexagonal,{16},83.0
Parakeldyshite,Na2ZrSi2O7,"{""Na"": 2.0, ""Zr"": 1.0, ""Si"": 2.0, ""O"": 7.0}",305.367,#FFFFFF,triclinic,{35},726.0
Paralammerite,Cu3(AsO4)2,"{""Cu"": 3.0, ""As"": 2.0, ""O"": 8.0}",468.474,#00BFFF,monoclinic,{45},424.0
Paralaurionite,PbCl(OH),"{""Pb"": 1.0, ""Cl"": 1.0, ""O"": 1.0, ""H"": 1.0}",259.657,#FFFFFF,monoclinic,"{23,56,57}",590.0
Paralstonite,BaCa(CO3)2,"{""Ba"": 1.0, ""Ca"": 1.0, ""C"": 2.0, ""O"": 6.0}",297.424,#FFFFFF,hexagonal,{23},398.0
Paramarkeyite,Ca2(UO2)(CO3)3·5H2O,"{""Ca"": 2.0, ""U"": 1.0, ""O"": 16.0, ""C"": 3.0, ""H"": 10.0}",620.283,#FFFFFF,monoclinic,{47},1998.0
Paramelaconite,Cu1+2Cu2+2O3,"{""Cu"": 4.0, ""O"": 3.0}",302.181,#00BFFF,tetragonal,"{50,54}",507.0
Paramendozavilite,NaAl4Fe7(PO4)5(PMo12O40)(OH)16·56H2O,"{""Na"": 1.0, ""Al"": 4.0, ""Fe"": 7.0, ""P"": 6.0, ""O"": 132.0, ""Mo"": 12.0, ""H"": 128.0}",4099.969,#556B2F,unknown,{47},1998.0
Paramolybdomenite,PbSeO3,"{""Pb"": 1.0, ""Se"": 1.0, ""O"": 3.0}",334.168,#FFFFFF,monoclinic,{},1.0
Paramontroseite,VO2,"{""V"": 1.0, ""O"": 2.0}",82.94,#FFFFFF,orthorhombic,{47},1998.0
Paranatisite,Na2TiO(SiO4),"{""Na"": 2.0, ""Ti"": 1.0, ""O"": 5.0, ""Si"": 1.0}",201.927,#FFFFFF,orthorhombic,{35},726.0
Paranatrolite,Na2(Si3Al2)O10·3H2O,"{""Na"": 2.0, ""Si"": 3.0, ""Al"": 2.0, ""O"": 13.0, ""H"": 6.0}",398.234,#FFFFFF,monoclinic,"{9,35}",853.0
Parapierrotite,TlSb5S8,"{""Tl"": 1.0, ""Sb"": 5.0, ""S"": 8.0}",1069.66,#A9A9A9,monoclinic,{33},797.0
Pararaisaite,CuMg[Te6+O4(OH)2]·6H2O,"{""Cu"": 1.0, ""Mg"": 1.0, ""Te"": 1.0, ""O"": 12.0, ""H"": 14.0}",421.551,#FFFFFF,monoclinic,"{47,55}",2262.0
Pararammelsbergite,NiAs2,"{""Ni"": 1.0, ""As"": 2.0}",208.537,#7FFF00,orthorhombic,{33},797.0
Pararealgar,As4S4,"{""As"": 4.0, ""S"": 4.0}",427.928,#FFD700,monoclinic,"{11,12,28,33,55}",1236.0
Pararsenolamprite,As,"{""As"": 1.0}",74.922,#808080,orthorhombic,"{33,47}",2795.0
Parascandolaite,KMgF3,"{""K"": 1.0, ""Mg"": 1.0, ""F"": 3.0}",120.397,#FFFFFF,cubic,"{36,45}",715.0
Paraschachnerite,Ag3Hg2,"{""Ag"": 3.0, ""Hg"": 2.0}",724.79,#C0C0C0,orthorhombic,"{33,47}",2795.0
Parascorodite,Fe3+(AsO4)·2H2O,"{""Fe"": 1.0, ""As"": 1.0, ""O"": 6.0, ""H"": 4.0}",230.793,#556B2F,hexagonal,"{47,55}",2262.0
Parasibirskite,Ca2B2O5·H2O,"{""Ca"": 2.0, ""B"": 2.0, ""O"": 6.0, ""H"": 2.0}",199.786,#FFFFFF,monoclinic,{23},398.0
Parasymplesite,Fe2+3(AsO4)2·8H2O,"{""Fe"": 3.0, ""As"": 2.0, ""O"": 16.0, ""H"": 16.0}",589.491,#556B2F,monoclinic,{47},1998.0
Paratellurite,TeO2,"{""Te"": 1.0, ""O"": 2.0}",159.598,#FFFFFF,tetragonal,{47},1998.0
Paratimroseite,Pb2Cu4(TeO6)2(H2O)2,"{""Pb"": 2.0, ""Cu"": 4.0, ""Te"": 2.0, ""O"": 14.0, ""H"": 4.0}",1151.802,#FFFFFF,orthorhombic,{47},1998.0
Paraumbite,K3Zr2H(Si3O9)2·3H2O,"{""K"": 3.0, ""Zr"": 2.0, ""H"": 7.0, ""Si"": 6.0, ""O"": 21.0}",811.287,#FFFFFF,orthorhombic,"{9,22,35}",1100.0
Parauranophane,Ca(UO2)2(SiO3OH)2·5H2O,"{""Ca"": 1.0, ""U"": 2.0, ""O"": 17.0, ""Si"": 2.0, ""H"": 12.0}",856.387,#FFFFFF,monoclinic,{47},1998.0
Paravauxite,Fe2+Al2(PO4)2(OH)2·8H2O,"{""Fe"": 1.0, ""Al"": 2.0, ""P"": 2.0, ""O"": 18.0, ""H"": 18.0}",477.883,#556B2F,triclinic,{22},247.0
Parawulffite,K5Na3Cu8O4(SO4)8,"{""K"": 5.0, ""Na"": 3.0, ""Cu"": 8.0, ""O"": 36.0, ""S"": 8.0}",1605.272,#FFFFFF,monoclinic,{45},424.0
Pargasite,NaCa2(Mg4Al)(Si6Al2)O22(OH)2,"{""Na"": 1.0, ""Ca"": 2.0, ""Mg"": 4.0, ""Al"": 3.0, ""Si"": 6.0, ""O"": 24.0, ""H"": 2.0}",835.814,#FFFFFF,monoclinic,"{8,10,12,16,19,20,22,26,31,34,35,40}",3062.0
Parisite-(Ce),CaCe2(CO3)3F2,"{""Ca"": 1.0, ""Ce"": 2.0, ""C"": 3.0, ""O"": 9.0, ""F"": 2.0}",538.338,#FFFFFF,monoclinic,"{34,35,36}",1581.0
Parisite-(La),CaLa2(CO3)3F2,"{""Ca"": 1.0, ""La"": 2.0, ""C"": 3.0, ""O"": 9.0, ""F"": 2.0}",535.918,#FFFFFF,monoclinic,"{34,35}",1290.0
Parisite-(Nd),CaNd2(CO3)3F2,"{""Ca"": 1.0, ""Nd"": 2.0, ""C"": 3.0, ""O"": 9.0, ""F"": 2.0}",546.578,#FFFFFF,monoclinic,{},1.0
Parkinsonite,Pb7MoO9Cl2,"{""Pb"": 7.0, ""Mo"": 1.0, ""O"": 9.0, ""Cl"": 2.0}",1761.241,#FFFFFF,tetragonal,{47},1998.0
Parnauite,Cu9(AsO4)2(SO4)(OH)10·7H2O,"{""Cu"": 9.0, ""As"": 2.0, ""O"": 29.0, ""S"": 1.0, ""H"": 24.0}",1241.981,#FFFFFF,monoclinic,{47},1998.0
Parsonsite,Pb2(UO2)(PO4)2,"{""Pb"": 2.0, ""U"": 1.0, ""O"": 10.0, ""P"": 2.0}",874.368,#FFFFFF,triclinic,{47},1998.0
Partheite,Ca2(Si4Al4)O15(OH)2·4H2O,"{""Ca"": 2.0, ""Si"": 4.0, ""Al"": 4.0, ""O"": 21.0, ""H"": 10.0}",646.483,#FFFFFF,monoclinic,"{16,38,47}",2189.0
Parwanite,NaMg4Al8(PO4)8(CO3)(OH)7·30H2O,"{""Na"": 1.0, ""Mg"": 4.0, ""Al"": 8.0, ""P"": 8.0, ""O"": 72.0, ""C"": 1.0, ""H"": 67.0}",1815.333,#FFFFFF,monoclinic,{52},72.0
Pasavaite,Pd3Pb2Te2,"{""Pd"": 3.0, ""Pb"": 2.0, ""Te"": 2.0}",988.86,#FFFFFF,orthorhombic,{33},797.0
Pascoite,Ca3V5+10O28·17H2O,"{""Ca"": 3.0, ""V"": 10.0, ""O"": 45.0, ""H"": 34.0}",1383.881,#FFFFFF,monoclinic,"{47,55}",2262.0
Patronite,VS4,"{""V"": 1.0, ""S"": 4.0}",179.182,#A9A9A9,monoclinic,"{33,50}",1070.0
Pattersonite,PbFe3(PO4)2(OH)5·H2O,"{""Pb"": 1.0, ""Fe"": 3.0, ""P"": 2.0, ""O"": 14.0, ""H"": 7.0}",667.725,#556B2F,triclinic,{47},1998.0
Patynite,NaKCa4[Si9O23],"{""Na"": 1.0, ""K"": 1.0, ""Ca"": 4.0, ""Si"": 9.0, ""O"": 23.0}",843.142,#FFFFFF,triclinic,{31},356.0
Pauflerite,VO(SO4),"{""V"": 1.0, ""O"": 5.0, ""S"": 1.0}",162.997,#FFFF00,orthorhombic,"{36,45}",715.0
Pauladamsite,Cu4(SeO3)(SO4)(OH)4·2H2O,"{""Cu"": 4.0, ""Se"": 1.0, ""O"": 13.0, ""S"": 1.0, ""H"": 8.0}",581.266,#FFFFFF,triclinic,{47},1998.0
Paulgrothite,Cu9Fe3+O4(PO4)4Cl,"{""Cu"": 9.0, ""Fe"": 1.0, ""O"": 20.0, ""P"": 4.0, ""Cl"": 1.0}",1107.085,#556B2F,orthorhombic,{45},424.0
Paulkellerite,Bi3+2Fe3+O2(PO4)(OH)2,"{""Bi"": 2.0, ""Fe"": 1.0, ""O"": 8.0, ""P"": 1.0, ""H"": 2.0}",634.787,#556B2F,monoclinic,{47},1998.0
Paulkerrite,[(H2O)K]Mg2(Fe3+2Ti)(PO4)4(OF)(H2O)10·4H2O,"{""H"": 30.0, ""O"": 32.0, ""K"": 1.0, ""Mg"": 2.0, ""Fe"": 2.0, ""Ti"": 1.0, ""P"": 4.0, ""F"": 1.0}",932.367,#556B2F,orthorhombic,"{34,47}",2562.0
Paulmooreite,Pb2As3+2O5,"{""Pb"": 2.0, ""As"": 2.0, ""O"": 5.0}",644.239,#808080,monoclinic,"{47,56}",2141.0
Pauloabibite,NaNbO3,"{""Na"": 1.0, ""Nb"": 1.0, ""O"": 3.0}",163.893,#FFFFFF,hexagonal,{36},291.0
Paulrobinsonite,Ti8Fe4O2,"{""Ti"": 8.0, ""Fe"": 4.0, ""O"": 2.0}",638.314,#8B4513,cubic,{},1.0
Paulscherrerite,(UO2)(OH)2,"{""U"": 1.0, ""O"": 4.0, ""H"": 2.0}",304.042,#ADFF2F,orthorhombic,{47},1998.0
Pautovite,CsFe2S3,"{""Cs"": 1.0, ""Fe"": 2.0, ""S"": 3.0}",340.78,#DAA520,orthorhombic,"{33,34}",1361.0
Pavlovskyite,Ca8(SiO4)2(Si3O10),"{""Ca"": 8.0, ""Si"": 5.0, ""O"": 18.0}",749.031,#FFFFFF,orthorhombic,"{9,31}",483.0
Pavonite,AgBi3S5,"{""Ag"": 1.0, ""Bi"": 3.0, ""S"": 5.0}",895.11,#A9A9A9,monoclinic,"{31,33}",1153.0
Paxite,CuAs2,"{""Cu"": 1.0, ""As"": 2.0}",213.39,#00BFFF,monoclinic,{33},797.0
Pecoraite,Ni3Si2O5(OH)4,"{""Ni"": 3.0, ""Si"": 2.0, ""O"": 9.0, ""H"": 4.0}",380.272,#FFFFFF,unknown,"{38,47}",2106.0
Pectolite,NaCa2Si3O8(OH),"{""Na"": 1.0, ""Ca"": 2.0, ""Si"": 3.0, ""O"": 9.0, ""H"": 1.0}",332.4,#FFFFFF,triclinic,"{7,10,13,23,31,35,40}",2096.0
Peisleyite,Na3Al16(PO4)10(SO4)2(OH)17·20H2O,"{""Na"": 3.0, ""Al"": 16.0, ""P"": 10.0, ""O"": 85.0, ""S"": 2.0, ""H"": 57.0}",2291.913,#FFFFFF,triclinic,"{31,47}",2354.0
Pekoite,CuPbBi11S18,"{""Cu"": 1.0, ""Pb"": 1.0, ""Bi"": 11.0, ""S"": 18.0}",3146.606,#708090,orthorhombic,{33},797.0
Pekovite,SrB2Si2O8,"{""Sr"": 1.0, ""B"": 2.0, ""Si"": 2.0, ""O"": 8.0}",293.402,#FFFFFF,orthorhombic,{35},726.0
Peligotite,Na6(UO2)(SO4)4(H2O)4,"{""Na"": 6.0, ""U"": 1.0, ""O"": 22.0, ""S"": 4.0, ""H"": 8.0}",864.252,#FFFFFF,triclinic,"{47,55}",2262.0
Pellyite,Ba2CaFe2+2Si6O17,"{""Ba"": 2.0, ""Ca"": 1.0, ""Fe"": 2.0, ""Si"": 6.0, ""O"": 17.0}",866.921,#556B2F,orthorhombic,{32},412.0
Penberthycroftite,[Al6(AsO4)3(OH)9(H2O)5]·8H2O,"{""Al"": 6.0, ""As"": 3.0, ""O"": 34.0, ""H"": 35.0}",965.904,#FFFFFF,monoclinic,{47},1998.0
Pendevilleite-(Y),Mg2Y3Al(UO2)2(CO3)7(OH)6(H2O)16,"{""Mg"": 2.0, ""Y"": 3.0, ""Al"": 1.0, ""U"": 2.0, ""O"": 47.0, ""C"": 7.0, ""H"": 38.0}",1692.704,#FFFFFF,triclinic,{},1.0
Penfieldite,Pb2Cl3(OH),"{""Pb"": 2.0, ""Cl"": 3.0, ""O"": 1.0, ""H"": 1.0}",537.757,#FFFFFF,hexagonal,"{47,55,56,57}",2454.0
Pengite,(Pb8Sb3+3)Sb5+9O35,"{""Pb"": 8.0, ""Sb"": 12.0, ""O"": 35.0}",3678.685,#A9A9A9,hexagonal,{},1.0
Penikisite,BaMg2Al2(PO4)3(OH)3,"{""Ba"": 1.0, ""Mg"": 2.0, ""Al"": 2.0, ""P"": 3.0, ""O"": 15.0, ""H"": 3.0}",575.835,#FFFFFF,monoclinic,"{22,34,47}",2809.0
Penkvilksite,Na2TiSi4O11·2H2O,"{""Na"": 2.0, ""Ti"": 1.0, ""Si"": 4.0, ""O"": 13.0, ""H"": 4.0}",418.206,#FFFFFF,monoclinic,{35},726.0
Penobsquisite,Ca2Fe2+[B9O13(OH)6]Cl·4H2O,"{""Ca"": 2.0, ""Fe"": 1.0, ""B"": 9.0, ""O"": 23.0, ""H"": 14.0, ""Cl"": 1.0}",650.83,#556B2F,monoclinic,{25},210.0