name,formula,elements,density,color,crystal,pm_ids,gacha_weight
Wangyanite,PdNi8S8,"{""Pd"": 1.0, ""Ni"": 8.0, ""S"": 8.0}",832.444,#A9A9A9,cubic,{},2e-08
Wardite,NaAl3(PO4)2(OH)4·2H2O,"{""Na"": 1.0, ""Al"": 3.0, ""P"": 2.0, ""O"": 14.0, ""H"": 8.0}",397.934,#FFFFFF,tetragonal,"{21,22,47}",3.1722e-08
Wardsmithite,Ca5Mg(B4O7)6·30H2O,"{""Ca"": 5.0, ""Mg"": 1.0, ""B"": 24.0, ""O"": 72.0, ""H"": 60.0}",1696.543,#FFFFFF,unknown,{47},1.5015e-07
Warikahnite,Zn3(AsO4)2·2H2O,"{""Zn"": 3.0, ""As"": 2.0, ""O"": 10.0, ""H"": 4.0}",510.006,#FFFFFF,triclinic,{47},1.5015e-07
Warkite,Ca2Sc6Al6O20,"{""Ca"": 2.0, ""Sc"": 6.0, ""Al"": 6.0, ""O"": 20.0}",831.764,#FFFFFF,triclinic,{3},2.08333e-07
Wassonite,TiS,"{""Ti"": 1.0, ""S"": 1.0}",79.927,#A9A9A9,hexagonal,"{4,6}",5.231e-09
Watatsumiite,LiNa2KMn2V2Si8O24,"{""Li"": 1.0, ""Na"": 2.0, ""K"": 1.0, ""Mn"": 2.0, ""V"": 2.0, ""Si"": 8.0, ""O"": 24.0}",912.434,#FFFFFF,monoclinic,{32},1.214e-09
Waterhouseite,Mn7(PO4)2(OH)8,"{""Mn"": 7.0, ""P"": 2.0, ""O"": 16.0, ""H"": 8.0}",710.562,#FFFFFF,monoclinic,{47},7.508e-09
Wattersite,Hg1+4Hg2+O2(CrO4),"{""Hg"": 5.0, ""O"": 6.0, ""Cr"": 1.0}",1150.94,#228B22,monoclinic,{47},1.5015e-07
Wattevilleite,Na2Ca(SO4)2·4H2O (?),"{""Na"": 2.0, ""Ca"": 1.0, ""S"": 2.0, ""O"": 12.0, ""H"": 8.0}",350.23,#FFFFFF,monoclinic,"{47,50,55}",4.493e-09
Wavellite,Al3(PO4)2(OH)3·5H2O,"{""Al"": 3.0, ""P"": 2.0, ""O"": 16.0, ""H"": 13.0}",411.982,#FFFFFF,orthorhombic,"{23,47}",1.90894e-07
Waylandite,BiAl3(PO4)2(OH)6,"{""Bi"": 1.0, ""Al"": 3.0, ""P"": 2.0, ""O"": 14.0, ""H"": 6.0}",581.908,#FFFFFF,hexagonal,{47},1.5015e-08
Wayneburnhamite,Pb9Ca6(Si2O7)3(SiO4)3,"{""Pb"": 9.0, ""Ca"": 6.0, ""Si"": 9.0, ""O"": 33.0}",2886.0,#FFFFFF,hexagonal,{32},2.4272e-08
Weberite,Na2MgAlF7,"{""Na"": 2.0, ""Mg"": 1.0, ""Al"": 1.0, ""F"": 7.0}",230.253,#FFFFFF,orthorhombic,"{23,35,36}",9.0347e-08
Weddellite,Ca(C2O4)·2H2O,"{""Ca"": 1.0, ""C"": 2.0, ""O"": 6.0, ""H"": 4.0}",164.126,#FFFFFF,tetragonal,"{24,48,49,52,53}",6.30209e-07
Weeksite,(K)2(UO2)2(Si5O13)·4H2O,"{""K"": 2.0, ""U"": 2.0, ""O"": 21.0, ""Si"": 5.0, ""H"": 8.0}",1038.724,#FFFFFF,orthorhombic,{47},1.5015e-07
Wegscheiderite,Na5H3(CO3)4,"{""Na"": 5.0, ""H"": 3.0, ""C"": 4.0, ""O"": 12.0}",358.006,#FFFFFF,triclinic,{47},1.5015e-07
Weilerite,BaAl3(SO4)(AsO4)(OH)6,"{""Ba"": 1.0, ""Al"": 3.0, ""S"": 1.0, ""O"": 14.0, ""As"": 1.0, ""H"": 6.0}",555.292,#FFFFFF,unknown,{47},3.003e-09
Weilite,Ca(AsO3OH),"{""Ca"": 1.0, ""As"": 1.0, ""O"": 4.0, ""H"": 1.0}",180.004,#FFFFFF,triclinic,"{47,55}",1.88029e-07
Weinebeneite,CaBe3(PO4)2(OH)2·4H2O,"{""Ca"": 1.0, ""Be"": 3.0, ""P"": 2.0, ""O"": 14.0, ""H"": 10.0}",363.1286,#FFFFFF,monoclinic,"{22,47}",1.9064e-08
Weissbergite,TlSbS2,"{""Tl"": 1.0, ""Sb"": 1.0, ""S"": 2.0}",390.26,#A9A9A9,triclinic,{33},2.51e-10
Weloganite,Na2Sr3Zr(CO3)6·3H2O,"{""Na"": 2.0, ""Sr"": 3.0, ""Zr"": 1.0, ""C"": 6.0, ""O"": 21.0, ""H"": 6.0}",814.157,#FFFFFF,triclinic,{35},1.3774e-08
Welshite,Ca4[Mg9Sb5+3]O4[Si6Be3AlFe3+2O36],"{""Ca"": 4.0, ""Mg"": 9.0, ""Sb"": 3.0, ""O"": 40.0, ""Si"": 6.0, ""Be"": 3.0, ""Al"": 1.0, ""Fe"": 2.0}",1718.5156,#556B2F,triclinic,{31},2.809e-08
Wendwilsonite,Ca2Mg(AsO4)2·2H2O,"{""Ca"": 2.0, ""Mg"": 1.0, ""As"": 2.0, ""O"": 10.0, ""H"": 4.0}",418.327,#FFFFFF,monoclinic,{47},1.5015e-07
Wenlanzhangite-(Y),Y2V3+2V4+2(SiO4)2O4(OH)4,"{""Y"": 2.0, ""V"": 4.0, ""Si"": 2.0, ""O"": 16.0, ""H"": 4.0}",697.766,#FFFFFF,triclinic,{},1e-06
Wenqingite,Pb5(AsS3)2(Ge2S6),"{""Pb"": 5.0, ""As"": 2.0, ""S"": 12.0, ""Ge"": 2.0}",1715.824,#708090,monoclinic,{},2e-08
Werdingite,Mg2Al14Si4B4O37,"{""Mg"": 2.0, ""Al"": 14.0, ""Si"": 4.0, ""B"": 4.0, ""O"": 37.0}",1173.901,#FFFFFF,triclinic,{40},9.404389e-06
Wermlandite,Mg7Al2(OH)18[Ca(H2O)6](SO4)2·6H2O,"{""Mg"": 7.0, ""Al"": 2.0, ""O"": 38.0, ""H"": 42.0, ""Ca"": 1.0, ""S"": 2.0}",978.595,#FFFFFF,hexagonal,"{32,47}",3.488e-09
Wernerbaurite,{(NH4)2[Ca2(H2O)14](H2O)2}{V10O28},"{""N"": 2.0, ""H"": 40.0, ""Ca"": 2.0, ""O"": 44.0, ""V"": 10.0}",1361.866,#FFFFFF,triclinic,"{47,53,55}",2.73499e-07
Wernerkrauseite,CaFe3+2Mn4+O6,"{""Ca"": 1.0, ""Fe"": 2.0, ""Mn"": 1.0, ""O"": 6.0}",302.7,#556B2F,orthorhombic,{39},7.143e-09
Wesselsite,SrCuSi4O10,"{""Sr"": 1.0, ""Cu"": 1.0, ""Si"": 4.0, ""O"": 10.0}",423.496,#FFFFFF,tetragonal,{32},2.4272e-08
Westerveldite,FeAs,"{""Fe"": 1.0, ""As"": 1.0}",130.767,#8B4513,orthorhombic,"{7,12,33}",1.71367e-07
Wetherillite,Na2Mg(UO2)2(SO4)4·18H2O,"{""Na"": 2.0, ""Mg"": 1.0, ""U"": 2.0, ""O"": 38.0, ""S"": 4.0, ""H"": 36.0}",1318.835,#FFFFFF,monoclinic,"{47,55}",3.761e-09
Wheatleyite,Na2Cu(C2O4)2·2H2O,"{""Na"": 2.0, ""Cu"": 1.0, ""C"": 4.0, ""O"": 10.0, ""H"": 4.0}",321.592,#FFFFFF,triclinic,{55},3.7879e-08
Whelanite,Cu2Ca6[Si6O17(OH)](CO3)(OH)3(H2O)2,"{""Cu"": 2.0, ""Ca"": 6.0, ""Si"": 6.0, ""O"": 26.0, ""H"": 8.0, ""C"": 1.0}",972.119,#FFFFFF,orthorhombic,{31},2.809e-08
Wherryite,Pb7Cu2(SO4)4(SiO4)2(OH)2,"{""Pb"": 7.0, ""Cu"": 2.0, ""S"": 4.0, ""O"": 26.0, ""Si"": 2.0, ""H"": 2.0}",2179.892,#FFFFFF,monoclinic,"{47,56}",4.402e-09
Whewellite,Ca(C2O4)·H2O,"{""Ca"": 1.0, ""C"": 2.0, ""O"": 5.0, ""H"": 2.0}",146.111,#FFFFFF,monoclinic,"{6,21,23,35,36,49,50}",2.148795e-06
Whitecapsite,H16Fe2+5Fe3+14Sb3+6(AsO4)18O16·120H2O,"{""H"": 256.0, ""Fe"": 19.0, ""Sb"": 6.0, ""As"": 18.0, ""O"": 208.0}",6726.051,#556B2F,hexagonal,{47},1.5015e-07
Whiteite-(CaFeMg),CaFe2+Mg2Al2(PO4)4(OH)2·8H2O,"{""Ca"": 1.0, ""Fe"": 1.0, ""Mg"": 2.0, ""Al"": 2.0, ""P"": 4.0, ""O"": 26.0, ""H"": 18.0}",756.511,#556B2F,monoclinic,"{32,34}",4.2e-09
Whiteite-(CaMgMg),CaMg3Al2(PO4)4(OH)2·8H2O,"{""Ca"": 1.0, ""Mg"": 3.0, ""Al"": 2.0, ""P"": 4.0, ""O"": 26.0, ""H"": 18.0}",724.971,#FFFFFF,monoclinic,{34},1.773e-09
Whiteite-(CaMnFe),CaMnFe2Al2(PO4)4(OH)2·8H2O,"{""Ca"": 1.0, ""Mn"": 1.0, ""Fe"": 2.0, ""Al"": 2.0, ""P"": 4.0, ""O"": 26.0, ""H"": 18.0}",818.684,#556B2F,monoclinic,{},5e-08
Whiteite-(CaMnMg),CaMn2+Mg2Al2(PO4)4(OH)2·8H2O,"{""Ca"": 1.0, ""Mn"": 1.0, ""Mg"": 2.0, ""Al"": 2.0, ""P"": 4.0, ""O"": 26.0, ""H"": 18.0}",755.604,#FFFFFF,monoclinic,{34},8.87e-10
Whiteite-(CaMnMn),CaMn2+Mn2+2Al2(PO4)4(OH)2·8H2O,"{""Ca"": 1.0, ""Mn"": 3.0, ""Al"": 2.0, ""P"": 4.0, ""O"": 26.0, ""H"": 18.0}",816.87,#FFFFFF,monoclinic,{34},8.87e-10
Whiteite-(MnFeMg),Mn2+Fe2+Mg2Al2(PO4)4(OH)2·8H2O,"{""Mn"": 1.0, ""Fe"": 1.0, ""Mg"": 2.0, ""Al"": 2.0, ""P"": 4.0, ""O"": 26.0, ""H"": 18.0}",771.371,#556B2F,unknown,{34},8.87e-10
Whiteite-(MnMnMg),Mn2+Mn2+Mg2Al2(PO4)4(OH)2·8H2O,"{""Mn"": 2.0, ""Mg"": 2.0, ""Al"": 2.0, ""P"": 4.0, ""O"": 26.0, ""H"": 18.0}",770.464,#FFFFFF,monoclinic,{32},1.214e-09
Whiteite-(MnMnMn),Mn2+Mn2+Mn2+2Al2(PO4)4(OH)2·8H2O,"{""Mn"": 4.0, ""Al"": 2.0, ""P"": 4.0, ""O"": 26.0, ""H"": 18.0}",831.73,#FFFFFF,monoclinic,{34},8.87e-10
Whiterockite,CaMgMn3+3O2(PO4)2(CO3)F·5H2O,"{""Ca"": 1.0, ""Mg"": 1.0, ""Mn"": 3.0, ""O"": 18.0, ""P"": 2.0, ""C"": 1.0, ""F"": 1.0, ""H"": 10.0}",620.216,#FFFFFF,monoclinic,{34},8.87e-10
Whitlockite,Ca9Mg(PO3OH)(PO4)6,"{""Ca"": 9.0, ""Mg"": 1.0, ""P"": 7.0, ""O"": 28.0, ""H"": 1.0}",1050.805,#FFFFFF,hexagonal,"{6,21,22,49,57}",5.498e-08
Whitmoreite,Fe2+Fe3+2(PO4)2(OH)2·4H2O,"{""Fe"": 3.0, ""P"": 2.0, ""O"": 14.0, ""H"": 10.0}",463.549,#556B2F,monoclinic,"{34,47}",1.6788e-08
Wickenburgite,Pb3CaAl2Si10O27·4H2O,"{""Pb"": 3.0, ""Ca"": 1.0, ""Al"": 2.0, ""Si"": 10.0, ""O"": 31.0, ""H"": 8.0}",1500.525,#FFFFFF,hexagonal,{47},1.5015e-07
Wickmanite,Mn2+Sn4+(OH)6,"{""Mn"": 1.0, ""Sn"": 1.0, ""O"": 6.0, ""H"": 6.0}",275.69,#FFFFFF,cubic,"{31,32,35}",3.307e-09
Widenmannite,Pb2(OH)2[(UO2)(CO3)2],"{""Pb"": 2.0, ""O"": 10.0, ""H"": 2.0, ""U"": 1.0, ""C"": 2.0}",838.458,#FFFFFF,orthorhombic,{47},1.5015e-07
Widgiemoolthalite,Ni5(CO3)4(OH)2·4-5H2O,"{""Ni"": 5.0, ""C"": 4.0, ""O"": 19.0, ""H"": 12.0}",657.586,#FFFFFF,monoclinic,"{47,55}",1.88029e-07
Wightmanite,Mg5O(BO3)(OH)5·2H2O,"{""Mg"": 5.0, ""O"": 11.0, ""B"": 1.0, ""H"": 9.0}",317.396,#FFFFFF,monoclinic,{23},1.758794e-06
Wilcoxite,MgAl(SO4)2F·17H2O,"{""Mg"": 1.0, ""Al"": 1.0, ""S"": 2.0, ""O"": 25.0, ""F"": 1.0, ""H"": 34.0}",568.652,#FFFFFF,triclinic,"{47,55}",3.761e-09
Wildcatite,CaFe3+Te6+O5(OH),"{""Ca"": 1.0, ""Fe"": 1.0, ""Te"": 1.0, ""O"": 6.0, ""H"": 1.0}",320.525,#556B2F,hexagonal,{47},1.5015e-07
Wilhelmgumbelite,[ZnFe2+Fe3+3(PO4)3(OH)4(H2O)5]·2H2O,"{""Zn"": 1.0, ""Fe"": 4.0, ""P"": 3.0, ""O"": 23.0, ""H"": 18.0}",767.803,#556B2F,orthorhombic,"{22,47}",1.9064e-08
Wilhelmkleinite,ZnFe3+2(AsO4)2(OH)2,"{""Zn"": 1.0, ""Fe"": 2.0, ""As"": 2.0, ""O"": 10.0, ""H"": 2.0}",488.92,#556B2F,monoclinic,{47},1.5015e-07
Wilhelmramsayite,Cu3FeS3·2H2O,"{""Cu"": 3.0, ""Fe"": 1.0, ""S"": 3.0, ""H"": 4.0, ""O"": 2.0}",378.693,#556B2F,orthorhombic,{22},8.1e-10
Wilhelmvierlingite,CaMn2+Fe3+(PO4)2(OH)·2H2O,"{""Ca"": 1.0, ""Mn"": 1.0, ""Fe"": 1.0, ""P"": 2.0, ""O"": 11.0, ""H"": 5.0}",393.838,#556B2F,orthorhombic,{47},7.508e-09
Wilkinsonite,Na4[Fe2+8Fe3+4]O4[Si12O36],"{""Na"": 4.0, ""Fe"": 12.0, ""O"": 40.0, ""Si"": 12.0}",1739.08,#556B2F,triclinic,"{6,9,35}",2.6846e-07
Wilkmanite,Ni3Se4,"{""Ni"": 3.0, ""Se"": 4.0}",491.963,#7FFF00,monoclinic,{33},1.2547e-08
Willemite,Zn2SiO4,"{""Zn"": 2.0, ""Si"": 1.0, ""O"": 4.0}",222.841,#FFFFFF,tetragonal,"{32,47}",1.74422e-07
Willemseite,Ni3Si4O10(OH)2,"{""Ni"": 3.0, ""Si"": 4.0, ""O"": 12.0, ""H"": 2.0}",482.423,#FFFFFF,monoclinic,{47},1.5015e-07
Willhendersonite,KCa(Si3Al3)O12·5H2O,"{""K"": 1.0, ""Ca"": 1.0, ""Si"": 3.0, ""Al"": 3.0, ""O"": 17.0, ""H"": 10.0}",526.44,#FFFFFF,triclinic,{10},1.21495e-07
Willyamite,CoSbS,"{""Co"": 1.0, ""Sb"": 1.0, ""S"": 1.0}",212.753,#A9A9A9,orthorhombic,{33},2.51e-10
Winstanleyite,TiTe4+3O8,"{""Ti"": 1.0, ""Te"": 3.0, ""O"": 8.0}",558.659,#FFFFFF,cubic,"{47,55}",5.6409e-08
Wiperamingaite,NaCaFe3+Al(PO4)F5(OH)·H2O,"{""Na"": 1.0, ""Ca"": 1.0, ""Fe"": 1.0, ""Al"": 1.0, ""P"": 1.0, ""O"": 6.0, ""F"": 5.0, ""H"": 3.0}",370.877,#556B2F,orthorhombic,{},5e-08
Witherite,Ba(CO3),"{""Ba"": 1.0, ""C"": 1.0, ""O"": 3.0}",197.338,#FFFFFF,orthorhombic,"{32,47}",1.74422e-07
Wittichenite,Cu3BiS3,"{""Cu"": 3.0, ""Bi"": 1.0, ""S"": 3.0}",495.798,#A9A9A9,orthorhombic,{33},2.51e-10
Witzkeite,Na4K4Ca(NO3)2(SO4)4·2H2O,"{""Na"": 4.0, ""K"": 4.0, ""Ca"": 1.0, ""N"": 2.0, ""O"": 24.0, ""S"": 4.0, ""H"": 4.0}",832.692,#FFFFFF,monoclinic,"{47,52}",5.781e-09
Wodegongjieite,KCa3(Al7Si9)O32,"{""K"": 1.0, ""Ca"": 3.0, ""Al"": 7.0, ""Si"": 9.0, ""O"": 32.0}",1112.939,#FFFFFF,hexagonal,{38},1.2037e-07
Wodginite,Mn2+Sn4+Ta2O8,"{""Mn"": 1.0, ""Sn"": 1.0, ""Ta"": 2.0, ""O"": 8.0}",663.54,#FFFFFF,monoclinic,{34},8.87e-10
Wolfeite,Fe2+2(PO4)(OH),"{""Fe"": 2.0, ""P"": 1.0, ""O"": 5.0, ""H"": 1.0}",223.667,#556B2F,monoclinic,"{21,32,34,40,47}",9.72312e-07
Wolfsriedite,Pb[(UO2)2(W6+Fe3+)O7(OH)](H2O)3,"{""Pb"": 1.0, ""U"": 2.0, ""O"": 15.0, ""W"": 1.0, ""Fe"": 1.0, ""H"": 7.0}",1169.986,#556B2F,monoclinic,{},1e-06
Wollastonite,CaSiO3,"{""Ca"": 1.0, ""Si"": 1.0, ""O"": 3.0}",116.16,#FFFFFF,triclinic,"{6,31,35,36,38,40,50,54}",1.2611762e-05
Wolsendorfite,Pb7(UO2)14O19(OH)4·12H2O,"{""Pb"": 7.0, ""U"": 14.0, ""O"": 63.0, ""H"": 28.0}",5818.981,#FFFFFF,orthorhombic,{47},1.5015e-07
Woodallite,Mg6Cr2(OH)16Cl2·4H2O,"{""Mg"": 6.0, ""Cr"": 2.0, ""O"": 20.0, ""H"": 24.0, ""Cl"": 2.0}",664.894,#FFFFFF,hexagonal,{47},1.5015e-07
Woodhouseite,CaAl3(SO4)(PO4)(OH)6,"{""Ca"": 1.0, ""Al"": 3.0, ""S"": 1.0, ""O"": 14.0, ""P"": 1.0, ""H"": 6.0}",414.092,#FFFFFF,hexagonal,"{21,46,47}",9.381e-09
Wooldridgeite,Na2CaCu2+2(P2O7)2·10H2O,"{""Na"": 2.0, ""Ca"": 1.0, ""Cu"": 2.0, ""P"": 4.0, ""O"": 24.0, ""H"": 20.0}",741.182,#FFFFFF,orthorhombic,{47},1.5015e-08
Wortupaite,MgNi2+2(Te4+O3)3·3H2O,"{""Mg"": 1.0, ""Ni"": 2.0, ""Te"": 3.0, ""O"": 12.0, ""H"": 6.0}",722.527,#FFFFFF,hexagonal,{},1e-06
Wrightite,K2Al2O(AsO4)2,"{""K"": 2.0, ""Al"": 2.0, ""O"": 9.0, ""As"": 2.0}",425.995,#FFFFFF,orthorhombic,{45},2.3585e-08
Wroewolfeite,Cu4(SO4)(OH)6·2H2O,"{""Cu"": 4.0, ""S"": 1.0, ""O"": 12.0, ""H"": 10.0}",488.312,#FFFFFF,monoclinic,"{47,55,56}",5.159e-09
Wulfenite,PbMoO4,"{""Pb"": 1.0, ""Mo"": 1.0, ""O"": 4.0}",367.146,#FFFFFF,tetragonal,{47},1.5015e-07
Wulffite,K3NaCu4O2(SO4)4,"{""K"": 3.0, ""Na"": 1.0, ""Cu"": 4.0, ""O"": 18.0, ""S"": 4.0}",810.69,#FFFFFF,orthorhombic,{45},4.72e-10
Wulfingite,Zn(OH)2,"{""Zn"": 1.0, ""O"": 2.0, ""H"": 2.0}",99.394,#FFFFFF,orthorhombic,"{47,56}",2.2008e-07
Wupatkiite,CoAl2(SO4)4·22H2O,"{""Co"": 1.0, ""Al"": 2.0, ""S"": 4.0, ""O"": 38.0, ""H"": 44.0}",893.451,#FFFFFF,monoclinic,"{47,50}",3.736e-09
Wurtzite,ZnS,"{""Zn"": 1.0, ""S"": 1.0}",97.44,#A9A9A9,hexagonal,"{11,12,15,23,25,31,32,33,49,50,54}",5.4967e-08
Wustite,FeO,"{""Fe"": 1.0, ""O"": 1.0}",71.844,#8B4513,cubic,"{8,33,38,42}",1.3724497e-05
Wuyanzhiite,Cu2S,"{""Cu"": 2.0, ""S"": 1.0}",159.152,#A9A9A9,tetragonal,{12},1.55e-09
Wyartite,CaU5+(UO2)2(CO3)O4(OH)·7H2O,"{""Ca"": 1.0, ""U"": 3.0, ""O"": 19.0, ""C"": 1.0, ""H"": 15.0}",1085.28,#FFFFFF,orthorhombic,{47},1.5015e-07
Wycheproofite,NaAlZr(PO4)2(OH)2·H2O,"{""Na"": 1.0, ""Al"": 1.0, ""Zr"": 1.0, ""P"": 2.0, ""O"": 11.0, ""H"": 4.0}",383.165,#FFFFFF,triclinic,{22},4.049e-09
Wyllieite,NaNaMn(Fe2+Al)(PO4)3,"{""Na"": 2.0, ""Mn"": 1.0, ""Fe"": 1.0, ""Al"": 1.0, ""P"": 3.0, ""O"": 12.0}",468.655,#556B2F,monoclinic,{34},8.87e-10
Xanthiosite,Ni3(AsO4)2,"{""Ni"": 3.0, ""As"": 2.0, ""O"": 8.0}",453.915,#7FFF00,monoclinic,{47},1.5015e-07
Xanthoconite,Ag3AsS3,"{""Ag"": 3.0, ""As"": 1.0, ""S"": 3.0}",494.712,#FFD700,monoclinic,{33},2.51e-10
Xanthoxenite,Ca4Fe3+2(PO4)4(OH)2·3H2O,"{""Ca"": 4.0, ""Fe"": 2.0, ""P"": 4.0, ""O"": 21.0, ""H"": 8.0}",739.941,#556B2F,unknown,{47},1.5015e-08
Xenophyllite,Na4Fe7(PO4)6,"{""Na"": 4.0, ""Fe"": 7.0, ""P"": 6.0, ""O"": 24.0}",1052.695,#556B2F,unknown,{30},6.25e-08
Xenotime-(Gd),Gd(PO4),"{""Gd"": 1.0, ""P"": 1.0, ""O"": 4.0}",252.22,#FFFFFF,tetragonal,{},1e-07
Xenotime-(Y),Y(PO4),"{""Y"": 1.0, ""P"": 1.0, ""O"": 4.0}",183.876,#FFFFFF,tetragonal,"{26,34,35}",7.15e-09
Xenotime-(Yb),Yb(PO4),"{""Yb"": 1.0, ""P"": 1.0, ""O"": 4.0}",268.02,#FFFFFF,tetragonal,"{26,34,35}",7.15e-09
Xiangjiangite,Fe3+(UO2)4(PO4)2(SO4)2(OH)·22H2O,"{""Fe"": 1.0, ""U"": 4.0, ""O"": 47.0, ""P"": 2.0, ""S"": 2.0, ""H"": 45.0}",1931.346,#556B2F,orthorhombic,{47},3.003e-09
Xianhuaite-(Ce),K2CeNb5O15,"{""K"": 2.0, ""Ce"": 1.0, ""Nb"": 5.0, ""O"": 15.0}",922.831,#FFFFFF,tetragonal,{},1e-06
Xieite,FeCr2O4,"{""Fe"": 1.0, ""Cr"": 2.0, ""O"": 4.0}",223.833,#228B22,orthorhombic,{6},4.878e-08
Xiexiandeite,SiO2,"{""Si"": 1.0, ""O"": 2.0}",60.083,#FFFFFF,monoclinic,{},2.26e-05
Xifengite,Fe5Si3,"{""Fe"": 5.0, ""Si"": 3.0}",363.48,#8B4513,hexagonal,"{6,26}",1.68683e-07
Xilingolite,Pb3Bi2S6,"{""Pb"": 3.0, ""Bi"": 2.0, ""S"": 6.0}",1231.92,#708090,monoclinic,{12},1.55e-09
Ximengite,Bi(PO4),"{""Bi"": 1.0, ""P"": 1.0, ""O"": 4.0}",303.95,#D2B48C,hexagonal,{47},1.5015e-08
Xingzhongite,Pb2+Ir3+2S4,"{""Pb"": 1.0, ""Ir"": 2.0, ""S"": 4.0}",719.88,#708090,cubic,"{12,26,33,37}",4.083e-09
Xitieshanite,Fe3+(SO4)Cl·6H2O,"{""Fe"": 1.0, ""S"": 1.0, ""O"": 10.0, ""Cl"": 1.0, ""H"": 12.0}",295.441,#556B2F,monoclinic,"{45,47,54}",4.329e-09
Xocolatlite,Ca2Mn4+2Te6+2O12·H2O,"{""Ca"": 2.0, ""Mn"": 2.0, ""Te"": 2.0, ""O"": 13.0, ""H"": 2.0}",655.235,#FFFFFF,monoclinic,{47},7.508e-09
Xocomecatlite,Cu3(Te6+O4)(OH)4,"{""Cu"": 3.0, ""Te"": 1.0, ""O"": 8.0, ""H"": 4.0}",450.262,#FFFFFF,unknown,{47},1.5015e-07
Xonotlite,Ca6Si6O17(OH)2,"{""Ca"": 6.0, ""Si"": 6.0, ""O"": 19.0, ""H"": 2.0}",714.975,#FFFFFF,monoclinic,{31},3.6517e-08
Xuite,Ca3Fe2[AlO3(OH)]3,"{""Ca"": 3.0, ""Fe"": 2.0, ""Al"": 3.0, ""O"": 12.0, ""H"": 3.0}",507.882,#556B2F,cubic,{9},1.02362e-07
Xuwenyuanite,Ag9Fe3+Te2S4,"{""Ag"": 9.0, ""Fe"": 1.0, ""Te"": 2.0, ""S"": 4.0}",1410.115,#DAA520,cubic,{33},2.51e-10
Yafsoanite,Ca3Te6+2(ZnO4)3,"{""Ca"": 3.0, ""Te"": 2.0, ""Zn"": 3.0, ""O"": 12.0}",763.562,#FFFFFF,cubic,"{33,47}",1.62697e-07
Yagiite,NaMg2(AlMg2Si12)O30,"{""Na"": 1.0, ""Mg"": 4.0, ""Al"": 1.0, ""Si"": 12.0, ""O"": 30.0}",964.182,#FFFFFF,hexagonal,{5},1.38298e-07
Yakovenchukite-(Y),K3NaCaY2Si12O30·4H2O,"{""K"": 3.0, ""Na"": 1.0, ""Ca"": 1.0, ""Y"": 2.0, ""Si"": 12.0, ""O"": 34.0, ""H"": 8.0}",1247.224,#FFFFFF,orthorhombic,{47},1.5015e-07
Yakubovichite,CaNi2Fe3+(PO4)3,"{""Ca"": 1.0, ""Ni"": 2.0, ""Fe"": 1.0, ""P"": 3.0, ""O"": 12.0}",498.219,#556B2F,orthorhombic,{51},7.812e-09
Yamhamelachite,KCrP2O7,"{""K"": 1.0, ""Cr"": 1.0, ""P"": 2.0, ""O"": 7.0}",265.035,#FFFFFF,monoclinic,{},1e-07
Yancowinnaite,PbCuAl(AsO4)2OH·H2O,"{""Pb"": 1.0, ""Cu"": 1.0, ""Al"": 1.0, ""As"": 2.0, ""O"": 10.0, ""H"": 3.0}",610.586,#FFFFFF,triclinic,{47},1.5015e-07
Yangite,PbMnSi3O8·H2O,"{""Pb"": 1.0, ""Mn"": 1.0, ""Si"": 3.0, ""O"": 9.0, ""H"": 2.0}",492.4,#FFFFFF,triclinic,"{32,47}",8.721e-09
Yanomamite,In(AsO4)·2H2O,"{""In"": 1.0, ""As"": 1.0, ""O"": 6.0, ""H"": 4.0}",289.768,#FFFFFF,orthorhombic,{47},1.5015e-07
Yarlongite,(Cr4Fe4Ni)C4,"{""Cr"": 4.0, ""Fe"": 4.0, ""Ni"": 1.0, ""C"": 4.0}",538.101,#556B2F,hexagonal,{38},9.2593e-08
Yaroshevskite,Cu9O2(VO4)4Cl2,"{""Cu"": 9.0, ""O"": 18.0, ""V"": 4.0, ""Cl"": 2.0}",1134.564,#FFFFFF,triclinic,{45},2.3585e-08
Yaroslavite,Ca3Al2F10(OH)2·H2O,"{""Ca"": 3.0, ""Al"": 2.0, ""F"": 10.0, ""O"": 3.0, ""H"": 4.0}",416.207,#FFFFFF,orthorhombic,{47},7.508e-09
Yarrowite,Cu9S8,"{""Cu"": 9.0, ""S"": 8.0}",828.394,#A9A9A9,hexagonal,"{12,15,33}",8.051e-09
Yarzhemskiite,K[B5O7(OH)2]·H2O,"{""K"": 1.0, ""B"": 5.0, ""O"": 10.0, ""H"": 4.0}",257.17,#FFFFFF,monoclinic,{25},4.7619e-08
Yavapaiite,KFe3+(SO4)2,"{""K"": 1.0, ""Fe"": 1.0, ""S"": 2.0, ""O"": 8.0}",287.055,#556B2F,monoclinic,"{45,47,55}",4.232e-09
Yeelimite,Ca4Al6O12(SO4),"{""Ca"": 4.0, ""Al"": 6.0, ""O"": 16.0, ""S"": 1.0}",610.248,#FFFFFF,cubic,"{50,51,54,56}",4.548e-09
Yeatmanite,Zn6Mn2+9Sb5+2O12(SiO4)4,"{""Zn"": 6.0, ""Mn"": 9.0, ""Sb"": 2.0, ""O"": 28.0, ""Si"": 4.0}",1690.554,#FFFFFF,triclinic,{32},1.214e-09
Yecoraite,Fe3+3Bi5O9(Te4+O3)(Te6+O4)2·9H2O,"{""Fe"": 3.0, ""Bi"": 5.0, ""O"": 29.0, ""Te"": 3.0, ""H"": 18.0}",2077.35,#556B2F,unknown,{47},1.5015e-07
Yegorovite,Na4[Si2O4(OH)2]2·7H2O,"{""Na"": 4.0, ""Si"": 4.0, ""O"": 19.0, ""H"": 18.0}",526.425,#FFFFFF,monoclinic,{35},3.4435e-08
Yeite,TiSi,"{""Ti"": 1.0, ""Si"": 1.0}",75.952,#FFFFFF,orthorhombic,{},3e-07
Yellowcatite,KNaFe3+2(Se4+O3)2(V5+2O7)·7H2O,"{""K"": 1.0, ""Na"": 1.0, ""Fe"": 2.0, ""Se"": 2.0, ""O"": 20.0, ""V"": 2.0, ""H"": 14.0}",767.696,#556B2F,hexagonal,{},1e-06
Yeomanite,Pb2O(OH)Cl,"{""Pb"": 2.0, ""O"": 2.0, ""H"": 1.0, ""Cl"": 1.0}",482.856,#FFFFFF,orthorhombic,{47},1.5015e-07
Yimengite,K[Ti3Cr5Fe3+2Mg2]O19,"{""K"": 1.0, ""Ti"": 3.0, ""Cr"": 5.0, ""Fe"": 2.0, ""Mg"": 2.0, ""O"": 19.0}",906.96,#556B2F,hexagonal,{36},1.0309e-08
Yingjiangite,K2Ca(UO2)7(PO4)4(OH)6·6H2O,"{""K"": 2.0, ""Ca"": 1.0, ""U"": 7.0, ""O"": 42.0, ""P"": 4.0, ""H"": 18.0}",2598.482,#FFFFFF,orthorhombic,{47},1.5015e-08
Yixunite,Pt3In,"{""Pt"": 3.0, ""In"": 1.0}",700.06,#FFFFFF,cubic,{7},8.1301e-08
Yoderite,(MgAl3)(MgAl)Al2O2(SiO4)4(OH)2,"{""Mg"": 2.0, ""Al"": 6.0, ""O"": 20.0, ""Si"": 4.0, ""H"": 2.0}",644.838,#FFFFFF,monoclinic,{40},1.2225705e-05
Yofortierite,Mn2+5Si8O20(OH)2·7H2O,"{""Mn"": 5.0, ""Si"": 8.0, ""O"": 29.0, ""H"": 16.0}",979.469,#FFFFFF,monoclinic,{35},6.89e-10
Yoshimuraite,Ba4Mn2+4Ti2(Si2O7)2(PO4)2O2(OH)2,"{""Ba"": 4.0, ""Mn"": 4.0, ""Ti"": 2.0, ""Si"": 4.0, ""O"": 26.0, ""P"": 2.0, ""H"": 2.0}",1457.084,#FFFFFF,triclinic,{35},6.89e-10
Yttriaite-(Y),Y2O3,"{""Y"": 2.0, ""O"": 3.0}",225.809,#FFFFFF,cubic,"{23,26}",1.798794e-06
Yttrialite-(Y),Y2Si2O7,"{""Y"": 2.0, ""Si"": 2.0, ""O"": 7.0}",345.975,#FFFFFF,monoclinic,{34},1.773e-08
Yttrotungstite-(Ce),CeW2O6(OH)3,"{""Ce"": 1.0, ""W"": 2.0, ""O"": 9.0, ""H"": 3.0}",654.815,#FFFFFF,monoclinic,"{26,47}",1.9015e-07
Yttrotungstite-(Nd),NdW2O7(OH)·H2O,"{""Nd"": 1.0, ""W"": 2.0, ""O"": 9.0, ""H"": 3.0}",658.935,#FFFFFF,monoclinic,{},1e-06
Yuanjiangite,AuSn,"{""Au"": 1.0, ""Sn"": 1.0}",315.68,#FFD700,hexagonal,{33},1.2547e-08
Yuchuanite-(Y),Y2(CO3)3·H2O,"{""Y"": 2.0, ""C"": 3.0, ""O"": 10.0, ""H"": 2.0}",375.851,#FFFFFF,triclinic,{},1e-06
Yugawaralite,Ca(Si6Al2)O16·4H2O,"{""Ca"": 1.0, ""Si"": 6.0, ""Al"": 2.0, ""O"": 20.0, ""H"": 8.0}",590.596,#FFFFFF,monoclinic,"{9,10,14,16}",5.93599e-07