name,formula,elements,density,color,crystal,pm_ids,gacha_weight
Piccoliite,NaCaMn3+2(AsO4)2O(OH),"{""Na"": 1.0, ""Ca"": 1.0, ""Mn"": 2.0, ""As"": 2.0, ""O"": 10.0, ""H"": 1.0}",483.786,#FFFFFF,orthorhombic,{47},7.508e-09
Pickeringite,MgAl2(SO4)4·22H2O,"{""Mg"": 1.0, ""Al"": 2.0, ""S"": 4.0, ""O"": 38.0, ""H"": 44.0}",858.823,#FFFFFF,monoclinic,"{21,45,47,50,54,55}",8.351e-09
Picotpaulite,TlFe2S3,"{""Tl"": 1.0, ""Fe"": 2.0, ""S"": 3.0}",412.25,#DAA520,orthorhombic,"{23,33}",3.5427e-08
Picromerite,K2Mg(SO4)2·6H2O,"{""K"": 2.0, ""Mg"": 1.0, ""S"": 2.0, ""O"": 14.0, ""H"": 12.0}",402.703,#FFFFFF,monoclinic,"{25,45,47,55,56}",6.583e-09
Picropharmacolite,Ca4Mg(AsO3OH)2(AsO4)2·11H2O,"{""Ca"": 4.0, ""Mg"": 1.0, ""As"": 4.0, ""O"": 27.0, ""H"": 24.0}",940.47,#FFFFFF,triclinic,"{47,55,56}",2.57959e-07
Pieczkaite,Mn5(PO4)3Cl,"{""Mn"": 5.0, ""P"": 3.0, ""O"": 12.0, ""Cl"": 1.0}",595.05,#FFFFFF,hexagonal,{34},8.87e-10
Piemontite,Ca2(Al2Mn3+)[Si2O7][SiO4]O(OH),"{""Ca"": 2.0, ""Al"": 2.0, ""Mn"": 1.0, ""Si"": 3.0, ""O"": 13.0, ""H"": 1.0}",482.308,#FFFFFF,monoclinic,"{20,31,32}",1.3729e-08
Piemontite-(Pb),CaPb(Al2Mn3+)[Si2O7][SiO4]O(OH),"{""Ca"": 1.0, ""Pb"": 1.0, ""Al"": 2.0, ""Mn"": 1.0, ""Si"": 3.0, ""O"": 13.0, ""H"": 1.0}",649.43,#FFFFFF,monoclinic,{31},1.404e-09
Piemontite-(Sr),CaSr(Al2Mn3+)[Si2O7][SiO4]O(OH),"{""Ca"": 1.0, ""Sr"": 1.0, ""Al"": 2.0, ""Mn"": 1.0, ""Si"": 3.0, ""O"": 13.0, ""H"": 1.0}",529.85,#FFFFFF,monoclinic,"{32,35}",1.902e-09
Piergorite-(Ce),Ca8Ce2AlLiSi6B8O36(OH)2,"{""Ca"": 8.0, ""Ce"": 2.0, ""Al"": 1.0, ""Li"": 1.0, ""Si"": 6.0, ""B"": 8.0, ""O"": 38.0, ""H"": 2.0}",1499.754,#FFFFFF,monoclinic,"{9,10,35}",1.85972e-07
Pigotite,Al4C6H5O10·13H2O (?),"{""Al"": 4.0, ""C"": 6.0, ""H"": 31.0, ""O"": 23.0}",579.219,#FFFFFF,unknown,"{52,53}",2.24359e-07
Pilanesbergite,Na2Ca2Fe2Ti2(Si2O7)2O2F2,"{""Na"": 2.0, ""Ca"": 2.0, ""Fe"": 2.0, ""Ti"": 2.0, ""Si"": 4.0, ""O"": 16.0, ""F"": 2.0}",739.88,#556B2F,monoclinic,{},5e-08
Pilawite-(Y),Ca2Y2Al4(SiO4)4O2(OH)2,"{""Ca"": 2.0, ""Y"": 2.0, ""Al"": 4.0, ""Si"": 4.0, ""O"": 20.0, ""H"": 2.0}",800.232,#FFFFFF,monoclinic,{34},1.773e-08
Pilipenkoite,KCu(AsO4)·H2O,"{""K"": 1.0, ""Cu"": 1.0, ""As"": 1.0, ""O"": 5.0, ""H"": 2.0}",259.577,#FFFFFF,unknown,{45},2.3585e-08
Pilsenite,Bi4Te3,"{""Bi"": 4.0, ""Te"": 3.0}",1218.72,#D2B48C,hexagonal,{33},1.2547e-08
Pinalite,Pb3(WO4)OCl2,"{""Pb"": 3.0, ""W"": 1.0, ""O"": 5.0, ""Cl"": 2.0}",956.335,#FFFFFF,orthorhombic,{47},1.5015e-07
Pinchite,Hg5O4Cl2,"{""Hg"": 5.0, ""O"": 4.0, ""Cl"": 2.0}",1137.846,#FFFFFF,orthorhombic,{47},1.5015e-07
Pingguite,Bi6Te6+2O15,"{""Bi"": 6.0, ""Te"": 2.0, ""O"": 15.0}",1749.065,#D2B48C,orthorhombic,{47},1.5015e-07
Pinnoite,MgB2O(OH)6,"{""Mg"": 1.0, ""B"": 2.0, ""O"": 7.0, ""H"": 6.0}",163.966,#FFFFFF,tetragonal,{25},4.7619e-08
Pintadoite,Ca2V5+2O7·9H2O,"{""Ca"": 2.0, ""V"": 2.0, ""O"": 16.0, ""H"": 18.0}",456.168,#FFFFFF,unknown,{47},1.5015e-07
Piretite,Ca(UO2)3(Se4+O3)2(OH)4·4H2O,"{""Ca"": 1.0, ""U"": 3.0, ""O"": 20.0, ""Se"": 2.0, ""H"": 12.0}",1244.186,#FFFFFF,orthorhombic,{47},1.5015e-07
Pirquitasite,Ag2ZnSnS4,"{""Ag"": 2.0, ""Zn"": 1.0, ""Sn"": 1.0, ""S"": 4.0}",528.07,#A9A9A9,tetragonal,{12},1.55e-09
Pirssonite,Na2Ca(CO3)2·2H2O,"{""Na"": 2.0, ""Ca"": 1.0, ""C"": 2.0, ""O"": 8.0, ""H"": 4.0}",242.104,#FFFFFF,orthorhombic,"{25,35}",6.1393e-08
Pitiglianoite,K2Na6(Si6Al6)O24(SO4)·2H2O,"{""K"": 2.0, ""Na"": 6.0, ""Si"": 6.0, ""Al"": 6.0, ""O"": 30.0, ""S"": 1.0, ""H"": 4.0}",1062.6,#FFFFFF,hexagonal,"{31,35}",8.37e-10
Plagionite,Pb5Sb8S17,"{""Pb"": 5.0, ""Sb"": 8.0, ""S"": 17.0}",2555.1,#708090,monoclinic,{33},2.51e-10
Plancheite,Cu8(Si4O11)2(OH)4·H2O,"{""Cu"": 8.0, ""Si"": 8.0, ""O"": 27.0, ""H"": 6.0}",1171.069,#FFFFFF,orthorhombic,{47},1.5015e-07
Planerite,Al6(PO4)2(PO3OH)2(OH)8·4H2O,"{""Al"": 6.0, ""P"": 4.0, ""O"": 28.0, ""H"": 18.0}",751.904,#FFFFFF,triclinic,{47},1.5015e-08
Plasilite,Na(UO2)(SO4)(OH)·2H2O,"{""Na"": 1.0, ""U"": 1.0, ""O"": 9.0, ""S"": 1.0, ""H"": 5.0}",442.111,#FFFFFF,monoclinic,"{47,55}",3.761e-09
Platinum,Pt,"{""Pt"": 1.0}",195.08,#FFFFFF,cubic,"{26,36,37,38}",2.41031e-07
Plattnerite,PbO2,"{""Pb"": 1.0, ""O"": 2.0}",239.198,#FFFFFF,tetragonal,"{50,54,56}",1.49295e-07
Pleysteinite,[(H2O)K]Mn2Al3(PO4)4F2(H2O)10·4H2O,"{""H"": 30.0, ""O"": 31.0, ""K"": 1.0, ""Mn"": 2.0, ""Al"": 3.0, ""P"": 4.0, ""F"": 2.0}",918.021,#FFFFFF,orthorhombic,{},5e-08
Plimerite,Zn2Fe3+3(PO4)3(OH)4(H2O),"{""Zn"": 2.0, ""Fe"": 3.0, ""P"": 3.0, ""O"": 17.0, ""H"": 6.0}",669.248,#556B2F,orthorhombic,{47},1.5015e-08
Pliniusite,Ca5(VO4)3F,"{""Ca"": 5.0, ""V"": 3.0, ""O"": 12.0, ""F"": 1.0}",564.202,#FFFFFF,hexagonal,"{45,50,51,54,56}",1.255e-08
Plombierite,Ca4Si6O16(OH)2(H2O)2·(Ca·5H2O),"{""Ca"": 9.0, ""Si"": 6.0, ""O"": 45.0, ""H"": 56.0}",1305.615,#FFFFFF,monoclinic,"{31,51}",1.38079e-07
Plumbogaidonnayite,PbZrSi3O9·2H2O,"{""Pb"": 1.0, ""Zr"": 1.0, ""Si"": 3.0, ""O"": 11.0, ""H"": 4.0}",562.7,#FFFFFF,orthorhombic,{},1e-06
Plumbogummite,PbAl3(PO4)(PO3OH)(OH)6,"{""Pb"": 1.0, ""Al"": 3.0, ""P"": 2.0, ""O"": 14.0, ""H"": 7.0}",581.136,#FFFFFF,hexagonal,{47},1.5015e-08
Plumbojohntomaite,PbFe2+2Fe3+2(PO4)3(OH)3,"{""Pb"": 1.0, ""Fe"": 4.0, ""P"": 3.0, ""O"": 15.0, ""H"": 3.0}",766.511,#556B2F,monoclinic,{},1e-07
Plumbonacrite,Pb5(CO3)3O(OH)2,"{""Pb"": 5.0, ""C"": 3.0, ""O"": 12.0, ""H"": 2.0}",1266.037,#FFFFFF,hexagonal,"{47,56}",2.2008e-07
Plumbopalladinite,Pd3Pb2,"{""Pd"": 3.0, ""Pb"": 2.0}",733.66,#FFFFFF,hexagonal,"{33,37}",8.6621e-08
Plumboperloffite,PbMn2+2Fe3+2(PO4)3(OH)3,"{""Pb"": 1.0, ""Mn"": 2.0, ""Fe"": 2.0, ""P"": 3.0, ""O"": 15.0, ""H"": 3.0}",764.697,#556B2F,monoclinic,"{22,34,47}",1.0418e-08
Plumbophyllite,Pb2Si4O10·H2O,"{""Pb"": 2.0, ""Si"": 4.0, ""O"": 11.0, ""H"": 2.0}",704.745,#FFFFFF,orthorhombic,{47},1.5015e-07
Plumboselite,Pb3O2(SeO3),"{""Pb"": 3.0, ""O"": 5.0, ""Se"": 1.0}",780.566,#FFFFFF,orthorhombic,{47},1.5015e-07
Plumbotellurite,Pb(Te4+O3),"{""Pb"": 1.0, ""Te"": 1.0, ""O"": 3.0}",382.797,#FFFFFF,orthorhombic,"{47,55}",1.88029e-07
Plumbotsumite,Pb5Si4O8(OH)10,"{""Pb"": 5.0, ""Si"": 4.0, ""O"": 18.0, ""H"": 10.0}",1446.402,#FFFFFF,triclinic,{47},1.5015e-07
Plumosite,Pb2Sb2S5,"{""Pb"": 2.0, ""Sb"": 2.0, ""S"": 5.0}",818.22,#708090,unknown,{33},2.51e-10
Podlesnoite,Ca2Ba(CO3)2F2,"{""Ca"": 2.0, ""Ba"": 1.0, ""C"": 2.0, ""O"": 6.0, ""F"": 2.0}",375.498,#FFFFFF,orthorhombic,{35},6.89e-10
Poellmannite,Ca6Al3(OH)18[Na(H2O)6](SO4)2·6H2O,"{""Ca"": 6.0, ""Al"": 3.0, ""O"": 38.0, ""H"": 42.0, ""Na"": 1.0, ""S"": 2.0}",1058.822,#FFFFFF,hexagonal,{22},8.1e-10
Pohlite,Pb7(IO3)(OH)4Cl9,"{""Pb"": 7.0, ""I"": 1.0, ""O"": 7.0, ""H"": 4.0, ""Cl"": 9.0}",2012.375,#FFFFFF,triclinic,{47},1.5015e-07
Poirierite,Mg2SiO4,"{""Mg"": 2.0, ""Si"": 1.0, ""O"": 4.0}",140.691,#FFFFFF,orthorhombic,{6},6.3415e-08
Poitevinite,Cu(SO4)·H2O,"{""Cu"": 1.0, ""S"": 1.0, ""O"": 5.0, ""H"": 2.0}",177.617,#FFFFFF,triclinic,"{45,47}",3.475e-09
Pokrovskite,Mg2(CO3)(OH)2,"{""Mg"": 2.0, ""C"": 1.0, ""O"": 5.0, ""H"": 2.0}",142.632,#FFFFFF,monoclinic,{7},8.1301e-08
Polekhovskyite,MoNiP2,"{""Mo"": 1.0, ""Ni"": 1.0, ""P"": 2.0}",216.591,#7FFF00,hexagonal,{51},7.812e-09
Polezhaevaite-(Ce),NaSrCeF6,"{""Na"": 1.0, ""Sr"": 1.0, ""Ce"": 1.0, ""F"": 6.0}",364.718,#FFFFFF,hexagonal,{35},6.89e-10
Polkanovite,Rh12As7,"{""Rh"": 12.0, ""As"": 7.0}",1759.374,#808080,hexagonal,"{7,26,33,36,38}",2.60805e-07
Polloneite,AgPb46As26Sb23S120,"{""Ag"": 1.0, ""Pb"": 46.0, ""As"": 26.0, ""Sb"": 23.0, ""S"": 120.0}",18234.722,#708090,monoclinic,{33},2.51e-10
Polyarsite,Na7CaMgCu2(AsO4)4F2Cl,"{""Na"": 7.0, ""Ca"": 1.0, ""Mg"": 1.0, ""Cu"": 2.0, ""As"": 4.0, ""O"": 16.0, ""F"": 2.0, ""Cl"": 1.0}",981.523,#FFFFFF,monoclinic,{45},1.179e-09
Polydymite,Ni2+Ni3+2S4,"{""Ni"": 3.0, ""S"": 4.0}",304.319,#A9A9A9,cubic,{12},1.55e-09
Polyhalite,K2Ca2Mg(SO4)4·2H2O,"{""K"": 2.0, ""Ca"": 2.0, ""Mg"": 1.0, ""S"": 4.0, ""O"": 18.0, ""H"": 4.0}",602.911,#FFFFFF,triclinic,"{21,25,45,47}",6.959e-09
Polylithionite,KLi2AlSi4O10F2,"{""K"": 1.0, ""Li"": 2.0, ""Al"": 1.0, ""Si"": 4.0, ""O"": 10.0, ""F"": 2.0}",390.286,#FFFFFF,monoclinic,{34},8.87e-10
Polyphite,Na6(Na4Ca2)2Na2Ti2Na2Ti2(Si2O7)2(PO4)6O4F4,"{""Na"": 18.0, ""Ca"": 4.0, ""Ti"": 4.0, ""Si"": 4.0, ""O"": 42.0, ""P"": 6.0, ""F"": 4.0}",1811.734,#FFFFFF,triclinic,{35},6.89e-10
Pomite,Ca3[V4+5V5+10O37(CO3)]·37H2O,"{""Ca"": 3.0, ""V"": 15.0, ""O"": 77.0, ""C"": 1.0, ""H"": 74.0}",2202.89,#FFFFFF,triclinic,{47},1.5015e-07
Ponomarevite,K4Cu4OCl10,"{""K"": 4.0, ""Cu"": 4.0, ""O"": 1.0, ""Cl"": 10.0}",781.075,#FFFFFF,monoclinic,{45},2.3585e-08
Popovite,Cu5O2(AsO4)2,"{""Cu"": 5.0, ""O"": 10.0, ""As"": 2.0}",627.564,#00BFFF,triclinic,{45},2.3585e-08
Popugaevaite,Ca3[B5O6(OH)6]FCl2·8H2O,"{""Ca"": 3.0, ""B"": 5.0, ""O"": 20.0, ""H"": 22.0, ""F"": 1.0, ""Cl"": 2.0}",606.338,#FFFFFF,monoclinic,{25},2.381e-09
Portlandite,Ca(OH)2,"{""Ca"": 1.0, ""O"": 2.0, ""H"": 2.0}",74.092,#FFFFFF,hexagonal,"{31,33,45,50,51,54,56}",3.79135e-07
Posnjakite,Cu4(SO4)(OH)6·H2O,"{""Cu"": 4.0, ""S"": 1.0, ""O"": 11.0, ""H"": 8.0}",470.297,#FFFFFF,monoclinic,"{47,55,56}",5.159e-09
Postite,Mg(H2O)6Al2(OH)2(H2O)8(V10O28)·13H2O,"{""Mg"": 1.0, ""H"": 56.0, ""O"": 57.0, ""Al"": 2.0, ""V"": 10.0}",1556.08,#FFFFFF,orthorhombic,"{47,55}",1.88029e-07
Potarite,PdHg,"{""Pd"": 1.0, ""Hg"": 1.0}",307.01,#FFFFFF,tetragonal,"{7,26,33,37}",2.07922e-07
Potassic-arfvedsonite,KNa2(Fe2+4Fe3+)Si8O22(OH)2,"{""K"": 1.0, ""Na"": 2.0, ""Fe"": 5.0, ""Si"": 8.0, ""O"": 24.0, ""H"": 2.0}",974.975,#556B2F,monoclinic,"{17,35,36}",3.41904e-07
Potassic-chloro-hastingsite,KCa2(Fe2+4Fe3+)(Si6Al2)O22Cl2,"{""K"": 1.0, ""Ca"": 2.0, ""Fe"": 5.0, ""Si"": 6.0, ""Al"": 2.0, ""O"": 22.0, ""Cl"": 2.0}",1043.831,#556B2F,monoclinic,"{12,22,26,31,40}",9.590484e-06
Potassic-chloro-pargasite,KCa2(Mg4Al)(Si6Al2)O22Cl2,"{""K"": 1.0, ""Ca"": 2.0, ""Mg"": 4.0, ""Al"": 3.0, ""Si"": 6.0, ""O"": 22.0, ""Cl"": 2.0}",888.808,#FFFFFF,monoclinic,{31},2.809e-08
Potassic-ferri-leakeite,KNa2(Mg2Fe3+2Li)Si8O22(OH)2,"{""K"": 1.0, ""Na"": 2.0, ""Mg"": 2.0, ""Fe"": 2.0, ""Li"": 1.0, ""Si"": 8.0, ""O"": 24.0, ""H"": 2.0}",862.99,#556B2F,monoclinic,"{19,32}",3.4989307e-05
Potassic-ferro-ferri-sadanagaite,KCa2(Fe2+3Fe3+2)(Si5Al3)O22(OH)2,"{""K"": 1.0, ""Ca"": 2.0, ""Fe"": 5.0, ""Si"": 5.0, ""Al"": 3.0, ""O"": 24.0, ""H"": 2.0}",1005.842,#556B2F,monoclinic,{35},1.7906e-08
Potassic-ferro-ferri-taramite,K(NaCa)(Fe2+3Fe3+2)(Si6Al2)O22(OH)2,"{""K"": 1.0, ""Na"": 1.0, ""Ca"": 1.0, ""Fe"": 5.0, ""Si"": 6.0, ""Al"": 2.0, ""O"": 24.0, ""H"": 2.0}",989.857,#556B2F,unknown,{35},1.7906e-08
Potassic-ferro-pargasite,KCa2(Fe2+4Al)(Si6Al2)O22(OH)2,"{""K"": 1.0, ""Ca"": 2.0, ""Fe"": 4.0, ""Al"": 3.0, ""Si"": 6.0, ""O"": 24.0, ""H"": 2.0}",978.082,#556B2F,monoclinic,"{31,35}",5.4423e-08
Potassic-ferro-sadanagaite,KCa2(Fe2+3Al2)(Si5Al3)O22(OH)2,"{""K"": 1.0, ""Ca"": 2.0, ""Fe"": 3.0, ""Al"": 5.0, ""Si"": 5.0, ""O"": 24.0, ""H"": 2.0}",948.116,#556B2F,unknown,"{8,40}",2.0612802e-05
Potassic-ferro-taramite,K(NaCa)(Fe2+3Al2)(Si6Al2)O22(OH)2,"{""K"": 1.0, ""Na"": 1.0, ""Ca"": 1.0, ""Fe"": 3.0, ""Al"": 4.0, ""Si"": 6.0, ""O"": 24.0, ""H"": 2.0}",932.131,#556B2F,monoclinic,{40},1.2225705e-05
Potassic-fluoro-hastingsite,KCa2(Fe2+4Fe3+)(Si6Al2)O22F2,"{""K"": 1.0, ""Ca"": 2.0, ""Fe"": 5.0, ""Si"": 6.0, ""Al"": 2.0, ""O"": 22.0, ""F"": 2.0}",1010.927,#556B2F,monoclinic,{40},4.70219e-07
Potassic-fluoro-pargasite,KCa2(Mg4Al)Si6Al2O22F2,"{""K"": 1.0, ""Ca"": 2.0, ""Mg"": 4.0, ""Al"": 3.0, ""Si"": 6.0, ""O"": 22.0, ""F"": 2.0}",855.904,#FFFFFF,monoclinic,{31},1.404e-09
Potassic-fluoro-richterite,K(NaCa)Mg5Si8O22F2,"{""K"": 1.0, ""Na"": 1.0, ""Ca"": 1.0, ""Mg"": 5.0, ""Si"": 8.0, ""O"": 22.0, ""F"": 2.0}",838.345,#FFFFFF,monoclinic,"{7,31,35,45}",7.337e-09
Potassic-hastingsite,KCa2(Fe2+4Fe3+)(Si6Al2)O22(OH)2,"{""K"": 1.0, ""Ca"": 2.0, ""Fe"": 5.0, ""Si"": 6.0, ""Al"": 2.0, ""O"": 24.0, ""H"": 2.0}",1006.945,#556B2F,monoclinic,"{12,22,35}",1.71313e-07
Potassic-jeanlouisite,K(NaCa)(Mg4Ti)Si8O22O2,"{""K"": 1.0, ""Na"": 1.0, ""Ca"": 1.0, ""Mg"": 4.0, ""Ti"": 1.0, ""Si"": 8.0, ""O"": 24.0}",855.909,#FFFFFF,monoclinic,{7},2.439e-08
Potassic-magnesio-arfvedsonite,KNa2(Mg4Fe3+)Si8O22(OH)2,"{""K"": 1.0, ""Na"": 2.0, ""Mg"": 4.0, ""Fe"": 1.0, ""Si"": 8.0, ""O"": 24.0, ""H"": 2.0}",848.815,#556B2F,monoclinic,"{17,35,36}",3.17482e-07
Potassic-magnesio-fluoro-arfvedsonite,KNa2(Mg4Fe3+)Si8O22F2,"{""K"": 1.0, ""Na"": 2.0, ""Mg"": 4.0, ""Fe"": 1.0, ""Si"": 8.0, ""O"": 22.0, ""F"": 2.0}",852.797,#556B2F,monoclinic,"{17,35,36}",1.2211e-08
Potassic-magnesio-hastingsite,KCa2(Mg4Fe3+)(Si6Al2)O22(OH)2,"{""K"": 1.0, ""Ca"": 2.0, ""Mg"": 4.0, ""Fe"": 1.0, ""Si"": 6.0, ""Al"": 2.0, ""O"": 24.0, ""H"": 2.0}",880.785,#556B2F,monoclinic,"{8,10,22,26}",8.613224e-06
Potassic-mangani-leakeite,KNa2(Mg2Mn3+2Li)Si8O22(OH)2,"{""K"": 1.0, ""Na"": 2.0, ""Mg"": 2.0, ""Mn"": 2.0, ""Li"": 1.0, ""Si"": 8.0, ""O"": 24.0, ""H"": 2.0}",861.176,#FFFFFF,unknown,{32},1.214e-09
Potassic-pargasite,KCa2(Mg4Al)(Si6Al2)O22(OH)2,"{""K"": 1.0, ""Ca"": 2.0, ""Mg"": 4.0, ""Al"": 3.0, ""Si"": 6.0, ""O"": 24.0, ""H"": 2.0}",851.922,#FFFFFF,monoclinic,"{7,31}",1.42208e-07
Potassic-richterite,K(NaCa)Mg5Si8O22(OH)2,"{""K"": 1.0, ""Na"": 1.0, ""Ca"": 1.0, ""Mg"": 5.0, ""Si"": 8.0, ""O"": 24.0, ""H"": 2.0}",834.363,#FFFFFF,monoclinic,"{7,31,35,36}",2.04788e-07
Potassic-sadanagaite,KCa2(Mg3Al2)(Si5Al3)O22(OH)2,"{""K"": 1.0, ""Ca"": 2.0, ""Mg"": 3.0, ""Al"": 5.0, ""Si"": 5.0, ""O"": 24.0, ""H"": 2.0}",853.496,#FFFFFF,monoclinic,"{31,40}",1.2262222e-05
Pottsite,(Pb3Bi)Bi(VO4)4·H2O,"{""Pb"": 3.0, ""Bi"": 2.0, ""V"": 4.0, ""O"": 17.0, ""H"": 2.0}",1517.327,#FFFFFF,tetragonal,{47},1.5015e-07
Poudretteite,KNa2(B3Si12)O30,"{""K"": 1.0, ""Na"": 2.0, ""B"": 3.0, ""Si"": 12.0, ""O"": 30.0}",934.498,#FFFFFF,hexagonal,{35},1.3774e-08
Poughite,Fe3+2(Te4+O3)2(SO4)·3H2O,"{""Fe"": 2.0, ""Te"": 2.0, ""O"": 13.0, ""S"": 1.0, ""H"": 6.0}",612.985,#556B2F,orthorhombic,{47},3.003e-09
Povondraite,NaFe3+3(Fe3+4Mg2)(Si6O18)(BO3)3(OH)3O,"{""Na"": 1.0, ""Fe"": 7.0, ""Mg"": 2.0, ""Si"": 6.0, ""O"": 31.0, ""B"": 3.0, ""H"": 3.0}",1162.448,#556B2F,hexagonal,"{19,23,26,34,40}",4.6185948e-05
Powellite,Ca(MoO4),"{""Ca"": 1.0, ""Mo"": 1.0, ""O"": 4.0}",200.024,#FFFFFF,tetragonal,"{6,8,34,47}",6.668274e-06
Poyarkovite,Hg3OCl,"{""Hg"": 3.0, ""O"": 1.0, ""Cl"": 1.0}",653.219,#FFFFFF,monoclinic,{47},1.5015e-07
Pracharite,CaSb5+2(As3+2O5)2O2·10H2O,"{""Ca"": 1.0, ""Sb"": 2.0, ""As"": 4.0, ""O"": 22.0, ""H"": 20.0}",955.424,#FFFFFF,hexagonal,{47},1.5015e-07
Pradetite,CoCu4(AsO4)2(AsO3OH)2·9H2O,"{""Co"": 1.0, ""Cu"": 4.0, ""As"": 4.0, ""O"": 25.0, ""H"": 20.0}",1032.94,#FFFFFF,triclinic,"{47,55}",1.88029e-07
Prehnite,Ca2Al(Si3Al)O10(OH)2,"{""Ca"": 2.0, ""Al"": 2.0, ""Si"": 3.0, ""O"": 12.0, ""H"": 2.0}",412.379,#FFFFFF,orthorhombic,"{8,10,14,16,23,31,39,40}",2.3612702e-05
Preisingerite,Bi3O(AsO4)2(OH),"{""Bi"": 3.0, ""O"": 10.0, ""As"": 2.0, ""H"": 1.0}",937.782,#FFFFFF,triclinic,{47},1.5015e-07
Preiswerkite,NaAlMg2(Si2Al2)O10(OH)2,"{""Na"": 1.0, ""Al"": 3.0, ""Mg"": 2.0, ""Si"": 2.0, ""O"": 12.0, ""H"": 2.0}",402.72,#FFFFFF,monoclinic,"{37,40}",1.2322002e-05
Preobrazhenskite,Mg3B11O15(OH)9,"{""Mg"": 3.0, ""B"": 11.0, ""O"": 24.0, ""H"": 9.0}",584.873,#FFFFFF,orthorhombic,{25},4.7619e-08
Pretulite,Sc(PO4),"{""Sc"": 1.0, ""P"": 1.0, ""O"": 4.0}",139.926,#FFFFFF,tetragonal,{23},1.75879e-07
Pribramite,CuSbSe2,"{""Cu"": 1.0, ""Sb"": 1.0, ""Se"": 2.0}",343.248,#00BFFF,orthorhombic,{33},1.2547e-08
Priceite,Ca2B5O7(OH)5·H2O,"{""Ca"": 2.0, ""B"": 5.0, ""O"": 13.0, ""H"": 7.0}",349.249,#FFFFFF,monoclinic,"{14,25}",2.11553e-07
Priderite,K(Ti7Fe3+)O16,"{""K"": 1.0, ""Ti"": 7.0, ""Fe"": 1.0, ""O"": 16.0}",685.996,#556B2F,tetragonal,"{35,36,41}",2.01942e-07
Princivalleite,Na(Mn2Al)Al6(Si6O18)(BO3)3(OH)3O,"{""Na"": 1.0, ""Mn"": 2.0, ""Al"": 7.0, ""Si"": 6.0, ""O"": 31.0, ""B"": 3.0, ""H"": 3.0}",1021.673,#FFFFFF,hexagonal,{34},8.87e-10
Pringleite,Ca9B26O34(OH)24Cl4·13H2O,"{""Ca"": 9.0, ""B"": 26.0, ""O"": 71.0, ""H"": 50.0, ""Cl"": 4.0}",1969.891,#FFFFFF,triclinic,{25},4.7619e-08
Priscillagrewite-(Y),YCa2Zr2Al3O12,"{""Y"": 1.0, ""Ca"": 2.0, ""Zr"": 2.0, ""Al"": 3.0, ""O"": 12.0}",624.444,#FFFFFF,cubic,"{31,51}",1.06215e-07
Probertite,NaCaB5O7(OH)4·3H2O,"{""Na"": 1.0, ""Ca"": 1.0, ""B"": 5.0, ""O"": 14.0, ""H"": 10.0}",351.184,#FFFFFF,monoclinic,"{14,25}",2.11553e-07
Prosopite,CaAl2F4(OH)4,"{""Ca"": 1.0, ""Al"": 2.0, ""F"": 4.0, ""O"": 4.0, ""H"": 4.0}",238.062,#FFFFFF,monoclinic,"{34,47}",8.394e-09
Prosperite,Ca2Zn4(AsO4)4·H2O,"{""Ca"": 2.0, ""Zn"": 4.0, ""As"": 4.0, ""O"": 17.0, ""H"": 2.0}",915.363,#FFFFFF,monoclinic,{47},1.5015e-07
Protasite,Ba(UO2)3O3(OH)2·3H2O,"{""Ba"": 1.0, ""U"": 3.0, ""O"": 14.0, ""H"": 8.0}",1083.47,#FFFFFF,monoclinic,{47},1.5015e-07
Protocaseyite,[Al4(OH)6(H2O)12][V10O28]·8H2O,"{""Al"": 4.0, ""O"": 54.0, ""H"": 46.0, ""V"": 10.0}",1527.662,#FFFFFF,triclinic,{47},1.5015e-07
Protoenstatite,Mg2Si2O6,"{""Mg"": 2.0, ""Si"": 2.0, ""O"": 6.0}",200.774,#FFFFFF,orthorhombic,{8},8.387097e-06
Proto-owyheeite,Ag9Pb40Sb45S112,"{""Ag"": 9.0, ""Pb"": 40.0, ""Sb"": 45.0, ""S"": 112.0}",18328.75,#708090,monoclinic,{},2e-08
Proustite,Ag3AsS3,"{""Ag"": 3.0, ""As"": 1.0, ""S"": 3.0}",494.712,#FFD700,hexagonal,{33},2.51e-10
Proxidecagonite,Al34Ni9Fe2,"{""Al"": 34.0, ""Ni"": 9.0, ""Fe"": 2.0}",1557.315,#7FFF00,orthorhombic,{6},4.878e-08
Proxitwelvefoldite,Pd3Ni4Te8,"{""Pd"": 3.0, ""Ni"": 4.0, ""Te"": 8.0}",1574.832,#7FFF00,tetragonal,{},1e-06
Przhevalskite,Pb(UO2)2(PO4)2·4H2O,"{""Pb"": 1.0, ""U"": 2.0, ""O"": 16.0, ""P"": 2.0, ""H"": 8.0}",1009.256,#FFFFFF,unknown,{47},1.5015e-08
Pseudoboleite,Pb31Cu24Cl62(OH)48,"{""Pb"": 31.0, ""Cu"": 24.0, ""Cl"": 62.0, ""O"": 48.0, ""H"": 48.0}",10962.54,#FFFFFF,tetragonal,{47},1.5015e-07
Pseudobrookite,(Fe3+2Ti)O5,"{""Fe"": 2.0, ""Ti"": 1.0, ""O"": 5.0}",239.552,#8B4513,orthorhombic,"{10,35,50,51,54}",7.9417e-08
Pseudocotunnite,K2PbCl4 (?),"{""K"": 2.0, ""Pb"": 1.0, ""Cl"": 4.0}",427.196,#FFFFFF,unknown,{45},2.3585e-08
Pseudodickthomssenite,Mg(VO3)2·8H2O,"{""Mg"": 1.0, ""V"": 2.0, ""O"": 14.0, ""H"": 16.0}",366.303,#FFFFFF,triclinic,{47},1.5015e-07
Pseudograndreefite,Pb6(SO4)F10,"{""Pb"": 6.0, ""S"": 1.0, ""O"": 4.0, ""F"": 10.0}",1529.236,#FFFFFF,orthorhombic,{47},3.003e-09
Pseudojohannite,Cu3(OH)2[(UO2)4O4(SO4)2]·12H2O,"{""Cu"": 3.0, ""O"": 34.0, ""H"": 26.0, ""U"": 4.0, ""S"": 2.0}",1777.052,#FFFFFF,triclinic,"{47,55}",3.761e-09
Pseudolaueite,Mn2+Fe3+2(PO4)2(OH)2·8H2O,"{""Mn"": 1.0, ""Fe"": 2.0, ""P"": 2.0, ""O"": 18.0, ""H"": 18.0}",534.702,#556B2F,monoclinic,"{34,47}",8.394e-09
Pseudolyonsite,Cu3(VO4)2,"{""Cu"": 3.0, ""V"": 2.0, ""O"": 8.0}",420.514,#00BFFF,monoclinic,"{45,53}",1.09055e-07
Pseudomalachite,Cu5(PO4)2(OH)4,"{""Cu"": 5.0, ""P"": 2.0, ""O"": 12.0, ""H"": 4.0}",575.698,#FFFFFF,monoclinic,{47},1.5015e-08
Pseudomarkeyite,Ca8(UO2)4(CO3)12(H2O)18·3H2O,"{""Ca"": 8.0, ""U"": 4.0, ""O"": 65.0, ""C"": 12.0, ""H"": 42.0}",2499.147,#FFFFFF,monoclinic,{47},1.5015e-07
Pseudomeisserite-(NH4),(NH4)2Na4[(UO2)2(SO4)5]·4H2O,"{""N"": 2.0, ""H"": 16.0, ""Na"": 4.0, ""U"": 2.0, ""O"": 28.0, ""S"": 5.0}",1220.434,#FFFFFF,monoclinic,"{47,53}",4.712e-09
Pseudorutile,Fe3+2Ti4+3O9,"{""Fe"": 2.0, ""Ti"": 3.0, ""O"": 9.0}",399.282,#8B4513,hexagonal,{47},4.5045e-08
Pseudosinhalite,Mg2Al3B2O9(OH),"{""Mg"": 2.0, ""Al"": 3.0, ""B"": 2.0, ""O"": 10.0, ""H"": 1.0}",312.174,#FFFFFF,monoclinic,{23},1.758794e-06
Pseudowollastonite,CaSiO3,"{""Ca"": 1.0, ""Si"": 1.0, ""O"": 3.0}",116.16,#FFFFFF,monoclinic,"{50,51,54,56}",2.95646e-07
Pucherite,Bi(VO4),"{""Bi"": 1.0, ""V"": 1.0, ""O"": 4.0}",323.918,#D2B48C,orthorhombic,"{34,47}",1.67881e-07
Pumpellyite-(Mg),Ca2MgAl2(Si2O7)(SiO4)(OH)2·H2O,"{""Ca"": 2.0, ""Mg"": 1.0, ""Al"": 2.0, ""Si"": 3.0, ""O"": 14.0, ""H"": 4.0}",470.698,#FFFFFF,monoclinic,{40},1.2225705e-05
Pumpellyite-(Mn2+),Ca2Mn2+Al2(Si2O7)(SiO4)(OH)2·H2O,"{""Ca"": 2.0, ""Mn"": 1.0, ""Al"": 2.0, ""Si"": 3.0, ""O"": 14.0, ""H"": 4.0}",501.331,#FFFFFF,monoclinic,"{32,40}",4.71433e-07
Puninite,Na2Cu3O(SO4)3,"{""Na"": 2.0, ""Cu"": 3.0, ""O"": 13.0, ""S"": 3.0}",540.785,#FFFFFF,monoclinic,{45},4.72e-10