name,formula,elements,density,color,crystal,pm_ids,gacha_weight
Tianhuixinite,(MoO3)3·H2O,"{""Mo"": 3.0, ""O"": 10.0, ""H"": 2.0}",449.856,#FFFFFF,hexagonal,{},1e-06
Tiemannite,HgSe,"{""Hg"": 1.0, ""Se"": 1.0}",279.561,#FFFFFF,cubic,{33},1.2547e-08
Tiettaite,K4Na12Fe3+2Si16O41(OH)4·2H2O,"{""K"": 4.0, ""Na"": 12.0, ""Fe"": 2.0, ""Si"": 16.0, ""O"": 47.0, ""H"": 8.0}",1753.339,#556B2F,orthorhombic,{35},1.9284e-08
Tikhonenkovite,SrAlF4(OH)·H2O,"{""Sr"": 1.0, ""Al"": 1.0, ""F"": 4.0, ""O"": 2.0, ""H"": 3.0}",225.616,#FFFFFF,monoclinic,{47},7.508e-09
Tilasite,CaMg(AsO4)F,"{""Ca"": 1.0, ""Mg"": 1.0, ""As"": 1.0, ""O"": 4.0, ""F"": 1.0}",222.299,#FFFFFF,monoclinic,"{20,32,45}",1.3504e-08
Tilkerodeite,Pd2HgSe3,"{""Pd"": 2.0, ""Hg"": 1.0, ""Se"": 3.0}",650.343,#FFFFFF,hexagonal,{33},1.2547e-08
Tilleyite,Ca5Si2O7(CO3)2,"{""Ca"": 5.0, ""Si"": 2.0, ""O"": 13.0, ""C"": 2.0}",488.569,#FFFFFF,monoclinic,"{31,40}",9.432479e-06
Tillmannsite,HgAg3(VO4),"{""Hg"": 1.0, ""Ag"": 3.0, ""V"": 1.0, ""O"": 4.0}",639.138,#FFFFFF,tetragonal,{47},1.5015e-07
Timroseite,Pb2Cu5(TeO6)2(OH)2,"{""Pb"": 2.0, ""Cu"": 5.0, ""Te"": 2.0, ""O"": 14.0, ""H"": 2.0}",1213.332,#FFFFFF,orthorhombic,{47},1.5015e-07
Tin,Sn,"{""Sn"": 1.0}",118.71,#FFFFFF,cubic,"{7,26,33,36,38}",2.60805e-07
Tinaksite,K2NaCa2TiSi7O18(OH)O,"{""K"": 2.0, ""Na"": 1.0, ""Ca"": 2.0, ""Ti"": 1.0, ""Si"": 7.0, ""O"": 20.0, ""H"": 1.0}",746.792,#FFFFFF,triclinic,{31},8.427e-09
Tincalconite,Na2B4O5(OH)4·3H2O,"{""Na"": 2.0, ""B"": 4.0, ""O"": 12.0, ""H"": 10.0}",291.288,#FFFFFF,hexagonal,{25},4.7619e-08
Tinnunculite,C5H4N4O3·2H2O,"{""C"": 5.0, ""H"": 8.0, ""N"": 4.0, ""O"": 5.0}",204.142,#FFFFFF,monoclinic,"{50,52,54}",2.18254e-07
Tinsleyite,KAl2(PO4)2(OH)·2H2O,"{""K"": 1.0, ""Al"": 2.0, ""P"": 2.0, ""O"": 11.0, ""H"": 5.0}",336.039,#FFFFFF,monoclinic,"{21,31,52,53}",3.7903e-08
Tinticite,Fe3+3(PO4)2(OH)3·3H2O,"{""Fe"": 3.0, ""P"": 2.0, ""O"": 14.0, ""H"": 9.0}",462.541,#556B2F,triclinic,"{47,52}",2.8904e-08
Tintinaite,Pb10Cu2Sb16S35,"{""Pb"": 10.0, ""Cu"": 2.0, ""Sb"": 16.0, ""S"": 35.0}",5269.352,#708090,orthorhombic,"{23,33}",3.5427e-08
Tinzenite,Ca2Mn2+4Al4[B2Si8O30](OH)2,"{""Ca"": 2.0, ""Mn"": 4.0, ""Al"": 4.0, ""B"": 2.0, ""Si"": 8.0, ""O"": 32.0, ""H"": 2.0}",1168.12,#FFFFFF,triclinic,{32},1.214e-09
Tiragalloite,Mn2+4As5+Si3O12(OH),"{""Mn"": 4.0, ""As"": 1.0, ""Si"": 3.0, ""O"": 13.0, ""H"": 1.0}",587.924,#FFFFFF,monoclinic,{22},2.024e-09
Tischendorfite,Pd8Hg3Se9,"{""Pd"": 8.0, ""Hg"": 3.0, ""Se"": 9.0}",2163.869,#FFFFFF,orthorhombic,{33},1.2547e-08
Tisinalite,Na3Mn2+TiSi6O15(OH)3,"{""Na"": 3.0, ""Mn"": 1.0, ""Ti"": 1.0, ""Si"": 6.0, ""O"": 18.0, ""H"": 3.0}",631.291,#FFFFFF,hexagonal,{35},6.89e-10
Tistarite,Ti2O3,"{""Ti"": 2.0, ""O"": 3.0}",143.731,#FFFFFF,hexagonal,"{3,39}",1.05357e-07
Titanite,CaTi(SiO4)O,"{""Ca"": 1.0, ""Ti"": 1.0, ""Si"": 1.0, ""O"": 5.0}",196.025,#FFFFFF,monoclinic,"{8,23,24,26,31,34,35,36,38,40,50,54}",5.416754e-06
Titanium,Ti,"{""Ti"": 1.0}",47.867,#FFFFFF,cubic,"{7,11,36}",1.18033e-07
Titanowodginite,Mn2+TiTa2O8,"{""Mn"": 1.0, ""Ti"": 1.0, ""Ta"": 2.0, ""O"": 8.0}",592.697,#FFFFFF,monoclinic,{34},8.87e-10
Tivanite,TiV3+O3(OH),"{""Ti"": 1.0, ""V"": 1.0, ""O"": 4.0, ""H"": 1.0}",163.813,#FFFFFF,monoclinic,{47},4.5045e-08
Tlalocite,Cu10Zn6(Te4+O3)(Te6+O4)2Cl(OH)25·27H2O,"{""Cu"": 10.0, ""Zn"": 6.0, ""Te"": 3.0, ""O"": 63.0, ""Cl"": 1.0, ""H"": 79.0}",2533.559,#FFFFFF,unknown,{47},1.5015e-07
Tobelite,(NH4)Al2(Si3Al)O10(OH)2,"{""N"": 1.0, ""H"": 6.0, ""Al"": 3.0, ""Si"": 3.0, ""O"": 12.0}",377.244,#FFFFFF,monoclinic,"{40,46}",9.596696e-06
Tobermorite,Ca4Si6O17(H2O)2·(Ca·3H2O),"{""Ca"": 7.0, ""Si"": 6.0, ""O"": 28.0, ""H"": 22.0}",919.204,#FFFFFF,monoclinic,{31},3.6517e-08
Tokkoite,K2Ca4Si7O18(OH)F,"{""K"": 2.0, ""Ca"": 4.0, ""Si"": 7.0, ""O"": 19.0, ""H"": 1.0, ""F"": 1.0}",759.09,#FFFFFF,triclinic,{35},6.89e-10
Tokyoite,Ba2Mn3+(VO4)2OH,"{""Ba"": 2.0, ""Mn"": 1.0, ""V"": 2.0, ""O"": 9.0, ""H"": 1.0}",576.481,#FFFFFF,monoclinic,"{22,32,47}",1.0745e-08
Tolbachite,CuCl2,"{""Cu"": 1.0, ""Cl"": 2.0}",134.446,#00BFFF,monoclinic,"{45,47}",1.73735e-07
Toledoite,TiFeSi,"{""Ti"": 1.0, ""Fe"": 1.0, ""Si"": 1.0}",131.797,#8B4513,orthorhombic,{7},2.439e-08
Tolovkite,IrSbS,"{""Ir"": 1.0, ""Sb"": 1.0, ""S"": 1.0}",346.04,#A9A9A9,orthorhombic,"{26,37}",2.281e-09
Tolstykhite,Au3S4Te6,"{""Au"": 3.0, ""S"": 4.0, ""Te"": 6.0}",1484.75,#A9A9A9,triclinic,{33},2.51e-10
Tomamaeite,Cu3Pt,"{""Cu"": 3.0, ""Pt"": 1.0}",385.718,#00BFFF,cubic,{7},8.1301e-08
Tomcampbellite,[KCl][Fe2+14(OH)6(PO4)6(PO3OH)2],"{""K"": 1.0, ""Cl"": 1.0, ""Fe"": 14.0, ""O"": 38.0, ""H"": 8.0, ""P"": 8.0}",1720.196,#556B2F,monoclinic,{},1e-07
Tomichite,V3+4Ti4+3As3+O13(OH),"{""V"": 4.0, ""Ti"": 3.0, ""As"": 1.0, ""O"": 14.0, ""H"": 1.0}",647.285,#FFFFFF,monoclinic,"{40,47}",2.866362e-06
Tomsquarryite,NaMgAl3(PO4)2(OH)6·8H2O,"{""Na"": 1.0, ""Mg"": 1.0, ""Al"": 3.0, ""P"": 2.0, ""O"": 22.0, ""H"": 22.0}",564.343,#FFFFFF,unknown,{47},1.5015e-08
Tondiite,Cu3MgCl2(OH)6,"{""Cu"": 3.0, ""Mg"": 1.0, ""Cl"": 2.0, ""O"": 6.0, ""H"": 6.0}",387.885,#FFFFFF,hexagonal,"{45,47}",1.73735e-07
Tongbaite,Cr3C2,"{""Cr"": 3.0, ""C"": 2.0}",180.01,#228B22,orthorhombic,{7},8.1301e-08
Tooeleite,Fe3+6(AsO3)4(SO4)(OH)4·4H2O,"{""Fe"": 6.0, ""As"": 4.0, ""O"": 24.0, ""S"": 1.0, ""H"": 12.0}",1062.89,#556B2F,monoclinic,"{47,56}",4.402e-09
Topaz,Al2SiO4F2,"{""Al"": 2.0, ""Si"": 1.0, ""O"": 4.0, ""F"": 2.0}",184.041,#FFFFFF,orthorhombic,"{19,20,23,26,34,46,48}",1.866847e-06
Topsoeite,FeF3(H2O)3,"{""Fe"": 1.0, ""F"": 3.0, ""H"": 6.0, ""O"": 3.0}",166.884,#556B2F,tetragonal,{45},1.179e-09
Torbernite,Cu(UO2)2(PO4)2·12H2O,"{""Cu"": 1.0, ""U"": 2.0, ""O"": 24.0, ""P"": 2.0, ""H"": 24.0}",1009.722,#FFFFFF,tetragonal,{47},1.5015e-08
Tornebohmite-(Ce),Ce2Al(SiO4)2(OH),"{""Ce"": 2.0, ""Al"": 1.0, ""Si"": 2.0, ""O"": 9.0, ""H"": 1.0}",508.391,#FFFFFF,monoclinic,{31},2.809e-08
Tornebohmite-(La),La2Al(SiO4)2(OH),"{""La"": 2.0, ""Al"": 1.0, ""Si"": 2.0, ""O"": 9.0, ""H"": 1.0}",505.971,#FFFFFF,monoclinic,{31},2.809e-08
Tornroosite,Pd11As2Te2,"{""Pd"": 11.0, ""As"": 2.0, ""Te"": 2.0}",1575.664,#808080,cubic,"{33,37}",8.6621e-08
Torreyite,Mg9Zn4(SO4)2(OH)22·8H2O,"{""Mg"": 9.0, ""Zn"": 4.0, ""S"": 2.0, ""O"": 38.0, ""H"": 38.0}",1190.651,#FFFFFF,unknown,{32},4.85e-10
Torryweiserite,Rh5Ni10S16,"{""Rh"": 5.0, ""Ni"": 10.0, ""S"": 16.0}",1614.44,#A9A9A9,hexagonal,{33},2.51e-10
Toturite,Ca3Sn2(SiFe3+2)O12,"{""Ca"": 3.0, ""Sn"": 2.0, ""Si"": 1.0, ""Fe"": 2.0, ""O"": 12.0}",689.417,#556B2F,cubic,"{9,31}",1.0683e-07
Touretite,LiAl4Be4(B11Be)O28,"{""Li"": 1.0, ""Al"": 4.0, ""Be"": 5.0, ""B"": 11.0, ""O"": 28.0}",726.811,#FFFFFF,cubic,{},1e-06
Townendite,Na8ZrSi6O18,"{""Na"": 8.0, ""Zr"": 1.0, ""Si"": 6.0, ""O"": 18.0}",731.636,#FFFFFF,hexagonal,{35},1.3774e-08
Trabzonite,Ca4[Si3O9(OH)](OH),"{""Ca"": 4.0, ""Si"": 3.0, ""O"": 11.0, ""H"": 2.0}",422.572,#FFFFFF,orthorhombic,{31},3.6517e-08
Tranquillityite,Fe2+8Ti3Zr2Si3O24,"{""Fe"": 8.0, ""Ti"": 3.0, ""Zr"": 2.0, ""Si"": 3.0, ""O"": 24.0}",1241.04,#556B2F,hexagonal,"{5,8}",1.967399e-06
Transjordanite,Ni2P,"{""Ni"": 2.0, ""P"": 1.0}",148.36,#7FFF00,hexagonal,"{5,51}",1.8451e-08
Trattnerite,Fe3+2(Mg3Si12)O30,"{""Fe"": 2.0, ""Mg"": 3.0, ""Si"": 12.0, ""O"": 30.0}",1001.595,#556B2F,hexagonal,"{31,35}",5.4423e-08
Treasurite,Ag7Pb6Bi15S30,"{""Ag"": 7.0, ""Pb"": 6.0, ""Bi"": 15.0, ""S"": 30.0}",6094.79,#708090,monoclinic,{33},2.51e-10
Trebeurdenite,Fe2+2Fe3+4O2(OH)10(CO3)·3H2O,"{""Fe"": 6.0, ""O"": 18.0, ""H"": 16.0, ""C"": 1.0}",651.191,#556B2F,unknown,{47},1.5015e-07
Trebiskyite,Na3Mg2[TiV9O28]·22H2O,"{""Na"": 3.0, ""Mg"": 2.0, ""Ti"": 1.0, ""V"": 9.0, ""O"": 50.0, ""H"": 44.0}",1468.227,#FFFFFF,monoclinic,{47},4.5045e-08
Trechmannite,AgAsS2,"{""Ag"": 1.0, ""As"": 1.0, ""S"": 2.0}",246.912,#FFD700,hexagonal,{33},2.51e-10
Tredouxite,NiSb2O6,"{""Ni"": 1.0, ""Sb"": 2.0, ""O"": 6.0}",398.207,#7FFF00,tetragonal,{47},1.5015e-07
Trembathite,Mg3B7O13Cl,"{""Mg"": 3.0, ""B"": 7.0, ""O"": 13.0, ""Cl"": 1.0}",392.022,#FFFFFF,hexagonal,{25},4.7619e-08
Trevorite,NiFe3+2O4,"{""Ni"": 1.0, ""Fe"": 2.0, ""O"": 4.0}",234.379,#7FFF00,cubic,"{7,36,40}",9.520054e-06
Triangulite,Al3(UO2)4(PO4)4(OH)5·5H2O,"{""Al"": 3.0, ""U"": 4.0, ""O"": 34.0, ""P"": 4.0, ""H"": 15.0}",1716.048,#FFFFFF,triclinic,{47},1.5015e-08
Triazolite,NaCu2(N3C2H2)2(NH3)2Cl3·4H2O,"{""Na"": 1.0, ""Cu"": 2.0, ""N"": 8.0, ""C"": 4.0, ""H"": 18.0, ""Cl"": 3.0, ""O"": 4.0}",498.672,#FFFFFF,orthorhombic,{52},1.38889e-07
Tridymite,SiO2,"{""Si"": 1.0, ""O"": 2.0}",60.083,#FFFFFF,triclinic,"{4,5,9,10,20,26,50,54}",1.8824316e-05
Trigodomeykite,Cu3As,"{""Cu"": 3.0, ""As"": 1.0}",265.56,#00BFFF,hexagonal,{33},1.2547e-08
Trigonite,Pb3Mn2+(AsO3)2(AsO2OH),"{""Pb"": 3.0, ""Mn"": 1.0, ""As"": 3.0, ""O"": 9.0, ""H"": 1.0}",1046.303,#FFFFFF,monoclinic,{47},7.508e-09
Trikalsilite,K2Na(AlSiO4)3,"{""K"": 2.0, ""Na"": 1.0, ""Al"": 3.0, ""Si"": 3.0, ""O"": 12.0}",458.375,#FFFFFF,hexagonal,{35},1.9284e-08
Trimerite,CaBe3Mn2+2(SiO4)3,"{""Ca"": 1.0, ""Be"": 3.0, ""Mn"": 2.0, ""Si"": 3.0, ""O"": 12.0}",453.2336,#FFFFFF,monoclinic,{32},1.214e-09
Trimounsite-(Y),Y2Ti2SiO9,"{""Y"": 2.0, ""Ti"": 2.0, ""Si"": 1.0, ""O"": 9.0}",445.622,#FFFFFF,monoclinic,{34},5.319e-09
Trinepheline,NaAlSiO4,"{""Na"": 1.0, ""Al"": 1.0, ""Si"": 1.0, ""O"": 4.0}",142.053,#FFFFFF,monoclinic,{39},3.57143e-07
Triphylite,LiFe2+(PO4),"{""Li"": 1.0, ""Fe"": 1.0, ""P"": 1.0, ""O"": 4.0}",157.755,#556B2F,orthorhombic,{34},1.773e-09
Triplite,Mn2+2(PO4)F,"{""Mn"": 2.0, ""P"": 1.0, ""O"": 4.0, ""F"": 1.0}",223.844,#FFFFFF,monoclinic,"{22,34}",2.911e-09
Triploidite,Mn2+2(PO4)(OH),"{""Mn"": 2.0, ""P"": 1.0, ""O"": 5.0, ""H"": 1.0}",221.853,#FFFFFF,monoclinic,"{21,32,34,40,47}",4.86156e-07
Trippkeite,Cu2+As3+2O4,"{""Cu"": 1.0, ""As"": 2.0, ""O"": 4.0}",277.386,#00BFFF,tetragonal,{47},1.5015e-07
Tripuhyite,Fe3+Sb5+O4,"{""Fe"": 1.0, ""Sb"": 1.0, ""O"": 4.0}",241.601,#8B4513,tetragonal,"{45,47}",1.73735e-07
Trogerite,(H3O)(UO2)(AsO4)·3H2O,"{""H"": 9.0, ""O"": 10.0, ""U"": 1.0, ""As"": 1.0}",482.014,#FFFFFF,unknown,{47},1.5015e-07
Trogtalite,CoSe2,"{""Co"": 1.0, ""Se"": 2.0}",216.875,#4169E1,cubic,{33},1.2547e-08
Troilite,FeS,"{""Fe"": 1.0, ""S"": 1.0}",87.905,#DAA520,hexagonal,"{1,4,5,6,7,15,36,50,54}",2.66e-08
Trolleite,Al4(PO4)3(OH)3,"{""Al"": 4.0, ""P"": 3.0, ""O"": 15.0, ""H"": 3.0}",443.859,#FFFFFF,monoclinic,"{34,40}",9.42212e-07
Trona,Na3(HCO3)(CO3)·2H2O,"{""Na"": 3.0, ""H"": 5.0, ""C"": 2.0, ""O"": 8.0}",226.024,#FFFFFF,monoclinic,"{25,45}",7.1204e-08
Truscottite,Ca14Si24O58(OH)8·2H2O,"{""Ca"": 14.0, ""Si"": 24.0, ""O"": 68.0, ""H"": 12.0}",2335.16,#FFFFFF,hexagonal,{23},2.286432e-06
Trustedtite,Ni2+Ni3+2Se4,"{""Ni"": 3.0, ""Se"": 4.0}",491.963,#7FFF00,cubic,{33},1.2547e-08
Tsangpoite,Ca5(PO4)2(SiO4),"{""Ca"": 5.0, ""P"": 2.0, ""O"": 12.0, ""Si"": 1.0}",482.411,#FFFFFF,hexagonal,{5},1.0638e-08
Tsaregorodtsevite,N(CH3)4Si4(SiAl)O12,"{""N"": 1.0, ""C"": 4.0, ""H"": 12.0, ""Si"": 5.0, ""Al"": 1.0, ""O"": 12.0}",433.542,#FFFFFF,orthorhombic,"{40,53}",9.489859e-06
Tschaunerite,(Fe2+)(Fe2+Ti4+)O4,"{""Fe"": 2.0, ""Ti"": 1.0, ""O"": 4.0}",223.553,#8B4513,orthorhombic,{6},1.4634e-08
Tschermigite,(NH4)Al(SO4)2·12H2O,"{""N"": 1.0, ""H"": 28.0, ""Al"": 1.0, ""S"": 2.0, ""O"": 20.0}",453.313,#FFFFFF,cubic,"{45,47,50,53,54,55}",7.529e-09
Tschernichite,CaAl2Si6O16·8H2O,"{""Ca"": 1.0, ""Al"": 2.0, ""Si"": 6.0, ""O"": 24.0, ""H"": 16.0}",662.656,#FFFFFF,monoclinic,{10},1.21495e-07
Tsilaisite,NaMn2+3Al6(Si6O18)(BO3)3(OH)3(OH),"{""Na"": 1.0, ""Mn"": 3.0, ""Al"": 6.0, ""Si"": 6.0, ""O"": 31.0, ""B"": 3.0, ""H"": 4.0}",1050.637,#FFFFFF,hexagonal,"{23,34}",8.8826e-08
Tsnigriite,Ag9SbTe3S3,"{""Ag"": 9.0, ""Sb"": 1.0, ""Te"": 3.0, ""S"": 3.0}",1571.57,#A9A9A9,monoclinic,{33},2.51e-10
Tsugaruite,Pb28As15S50Cl,"{""Pb"": 28.0, ""As"": 15.0, ""S"": 50.0, ""Cl"": 1.0}",8563.88,#708090,orthorhombic,{33},2.51e-10
Tsumcorite,PbZn2(AsO4)2·2H2O,"{""Pb"": 1.0, ""Zn"": 2.0, ""As"": 2.0, ""O"": 10.0, ""H"": 4.0}",651.826,#FFFFFF,monoclinic,"{32,47}",1.74422e-07
Tsumebite,Pb2Cu(PO4)(SO4)(OH),"{""Pb"": 2.0, ""Cu"": 1.0, ""P"": 1.0, ""O"": 9.0, ""S"": 1.0, ""H"": 1.0}",685.979,#FFFFFF,monoclinic,"{23,32,47}",3.8664e-08
Tsumgallite,GaO(OH),"{""Ga"": 1.0, ""O"": 2.0, ""H"": 1.0}",102.729,#FFFFFF,orthorhombic,{47},1.5015e-07
Tsumoite,BiTe,"{""Bi"": 1.0, ""Te"": 1.0}",336.58,#D2B48C,hexagonal,{33},1.2547e-08
Tsygankoite,Mn8Tl8Hg2(Sb21Pb2Tl)S48,"{""Mn"": 8.0, ""Tl"": 9.0, ""Hg"": 2.0, ""Sb"": 21.0, ""Pb"": 2.0, ""S"": 48.0}",7190.344,#708090,monoclinic,{33},2.51e-10
Tubulite,Ag2Pb22Sb20S53,"{""Ag"": 2.0, ""Pb"": 22.0, ""Sb"": 20.0, ""S"": 53.0}",8908.52,#708090,monoclinic,{33},2.51e-10
Tucekite,Ni9Sb2S8,"{""Ni"": 9.0, ""Sb"": 2.0, ""S"": 8.0}",1028.237,#A9A9A9,tetragonal,{33},2.51e-10
Tugarinovite,MoO2,"{""Mo"": 1.0, ""O"": 2.0}",127.948,#FFFFFF,monoclinic,"{6,45,50,54}",1.5173e-07
Tugtupite,Na4BeAlSi4O12Cl,"{""Na"": 4.0, ""Be"": 1.0, ""Al"": 1.0, ""Si"": 4.0, ""O"": 12.0, ""Cl"": 1.0}",467.7322,#FFFFFF,tetragonal,"{22,35,47}",2.0441e-07
Tuhualite,NaFe2+Fe3+Si6O15,"{""Na"": 1.0, ""Fe"": 2.0, ""Si"": 6.0, ""O"": 15.0}",543.175,#556B2F,orthorhombic,"{34,35}",5.9859e-08
Tuite,Ca3(PO4)2,"{""Ca"": 3.0, ""P"": 2.0, ""O"": 8.0}",310.174,#FFFFFF,hexagonal,{6},4.878e-09
Tulameenite,Pt2CuFe,"{""Pt"": 2.0, ""Cu"": 1.0, ""Fe"": 1.0}",509.551,#00BFFF,tetragonal,"{7,26,37,38}",2.87967e-07
Tuliokite,Na6BaTh(CO3)6·6H2O,"{""Na"": 6.0, ""Ba"": 1.0, ""Th"": 1.0, ""C"": 6.0, ""O"": 24.0, ""H"": 12.0}",975.448,#FFFFFF,hexagonal,"{22,35}",5.426e-08
Tumchaite,Na2ZrSi4O11·2H2O,"{""Na"": 2.0, ""Zr"": 1.0, ""Si"": 4.0, ""O"": 13.0, ""H"": 4.0}",461.563,#FFFFFF,monoclinic,{36},3.4364e-08
Tundrite-(Ce),Na2Ce2TiO2(SiO4)(CO3)2,"{""Na"": 2.0, ""Ce"": 2.0, ""Ti"": 1.0, ""O"": 12.0, ""Si"": 1.0, ""C"": 2.0}",618.182,#FFFFFF,triclinic,"{35,47}",4.9177e-08
Tundrite-(Nd),Na2Nd2TiO2(SiO4)(CO3)2,"{""Na"": 2.0, ""Nd"": 2.0, ""Ti"": 1.0, ""O"": 12.0, ""Si"": 1.0, ""C"": 2.0}",626.422,#FFFFFF,triclinic,{35},4.132e-09
Tunellite,SrB6O9(OH)2·3H2O,"{""Sr"": 1.0, ""B"": 6.0, ""O"": 14.0, ""H"": 8.0}",384.53,#FFFFFF,monoclinic,{25},4.7619e-08
Tungsten,W,"{""W"": 1.0}",183.84,#FFFFFF,cubic,"{7,15,19,36,38,40,45,50}",4.4950396e-05
Tungstenite,WS2,"{""W"": 1.0, ""S"": 2.0}",247.96,#A9A9A9,hexagonal,"{31,33,34,45}",1.639e-09
Tungstibite,Sb2WO6,"{""Sb"": 2.0, ""W"": 1.0, ""O"": 6.0}",523.354,#A9A9A9,orthorhombic,{33},1.2547e-08
Tungstite,WO3·H2O,"{""W"": 1.0, ""O"": 4.0, ""H"": 2.0}",249.852,#FFFFFF,orthorhombic,{47},1.5015e-07
Tungusite,Ca14Fe2+9Si24O60(OH)22,"{""Ca"": 14.0, ""Fe"": 9.0, ""Si"": 24.0, ""O"": 82.0, ""H"": 22.0}",3071.831,#556B2F,triclinic,{10},1.21495e-07
Tunisite,NaCa2Al4(CO3)4(OH)8Cl,"{""Na"": 1.0, ""Ca"": 2.0, ""Al"": 4.0, ""C"": 4.0, ""O"": 20.0, ""H"": 8.0, ""Cl"": 1.0}",622.612,#FFFFFF,tetragonal,"{23,31}",1.786884e-06
Turanite,Cu2+5(VO4)2(OH)4,"{""Cu"": 5.0, ""V"": 2.0, ""O"": 12.0, ""H"": 4.0}",615.634,#FFFFFF,triclinic,{47},1.5015e-07
Turneaureite,Ca5(AsO4)3Cl,"{""Ca"": 5.0, ""As"": 3.0, ""O"": 12.0, ""Cl"": 1.0}",652.594,#FFFFFF,hexagonal,"{32,47}",1.74422e-07
Turquoise,CuAl6(PO4)4(OH)8·4H2O,"{""Cu"": 1.0, ""Al"": 6.0, ""P"": 4.0, ""O"": 28.0, ""H"": 16.0}",813.434,#FFFFFF,triclinic,{47},1.5015e-08
Turtmannite,Mn25O5(VO4)3(SiO4)3(OH)20,"{""Mn"": 25.0, ""O"": 49.0, ""V"": 3.0, ""Si"": 3.0, ""H"": 20.0}",2414.642,#FFFFFF,hexagonal,"{32,33}",1.841e-09
Tusionite,Mn2+Sn(BO3)2,"{""Mn"": 1.0, ""Sn"": 1.0, ""B"": 2.0, ""O"": 6.0}",291.262,#FFFFFF,hexagonal,{34},8.87e-10
Tuzlaite,NaCaB5O8(OH)2·3H2O,"{""Na"": 1.0, ""Ca"": 1.0, ""B"": 5.0, ""O"": 13.0, ""H"": 8.0}",333.169,#FFFFFF,monoclinic,"{23,25}",1.806413e-06
Tvalchrelidzeite,Hg3SbAsS3,"{""Hg"": 3.0, ""Sb"": 1.0, ""As"": 1.0, ""S"": 3.0}",894.632,#FFD700,monoclinic,{33},2.51e-10
Tvedalite,Ca4Be3Si6O17(OH)4·3H2O,"{""Ca"": 4.0, ""Be"": 3.0, ""Si"": 6.0, ""O"": 24.0, ""H"": 10.0}",749.9146,#FFFFFF,orthorhombic,{35},1.3774e-08
Tvrdyite,Fe2+Fe3+2Al3(PO4)4(OH)5(H2O)4·2H2O,"{""Fe"": 3.0, ""Al"": 3.0, ""P"": 4.0, ""O"": 27.0, ""H"": 17.0}",821.486,#556B2F,monoclinic,{47},1.5015e-08
Tweddillite,CaSrMn3+2Al(Si2O7)(SiO4)O(OH),"{""Ca"": 1.0, ""Sr"": 1.0, ""Mn"": 2.0, ""Al"": 1.0, ""Si"": 3.0, ""O"": 13.0, ""H"": 1.0}",557.806,#FFFFFF,monoclinic,"{32,35}",1.902e-09
Twinnite,PbSbAsS4,"{""Pb"": 1.0, ""Sb"": 1.0, ""As"": 1.0, ""S"": 4.0}",532.122,#708090,monoclinic,{33},2.51e-10
Tychite,Na6Mg2(CO3)4(SO4),"{""Na"": 6.0, ""Mg"": 2.0, ""C"": 4.0, ""O"": 16.0, ""S"": 1.0}",522.638,#FFFFFF,cubic,"{35,36}",9.63e-10
Tyretskite,Ca2B5O9(OH)·H2O,"{""Ca"": 2.0, ""B"": 5.0, ""O"": 11.0, ""H"": 3.0}",313.219,#FFFFFF,triclinic,{25},4.7619e-08
Tyrolite,Ca2Cu9(AsO4)4(CO3)(OH)8·11H2O,"{""Ca"": 2.0, ""Cu"": 9.0, ""As"": 4.0, ""O"": 38.0, ""C"": 1.0, ""H"": 30.0}",1601.971,#FFFFFF,monoclinic,{47},1.5015e-07
Tyuyamunite,Ca(UO2)2(VO4)2·5-8H2O,"{""Ca"": 1.0, ""U"": 2.0, ""O"": 20.0, ""V"": 2.0, ""H"": 16.0}",954.13,#FFFFFF,tetragonal,{47},1.5015e-07
Tzeferisite,CaZn8(SO4)2(OH)12Cl2(H2O)9,"{""Ca"": 1.0, ""Zn"": 8.0, ""S"": 2.0, ""O"": 29.0, ""H"": 30.0, ""Cl"": 2.0}",1192.349,#FFFFFF,hexagonal,{},2e-08
Uakitite,VN,"{""V"": 1.0, ""N"": 1.0}",64.949,#FFFFFF,cubic,{5},1.06383e-07
Uchucchacuaite,AgMnPb3Sb5S12,"{""Ag"": 1.0, ""Mn"": 1.0, ""Pb"": 3.0, ""Sb"": 5.0, ""S"": 12.0}",1777.928,#708090,monoclinic,{12},1.55e-09
Udinaite,NaMg4(VO4)3,"{""Na"": 1.0, ""Mg"": 4.0, ""V"": 3.0, ""O"": 12.0}",465.024,#FFFFFF,tetragonal,{45},2.3585e-08
Uduminelite,Ca3Al8(PO4)2O12·2H2O,"{""Ca"": 3.0, ""Al"": 8.0, ""P"": 2.0, ""O"": 22.0, ""H"": 4.0}",754.048,#FFFFFF,unknown,"{34,47}",1.6788e-08
Uedaite-(Ce),Mn2+CeAl2Fe2+(Si2O7)(SiO4)O(OH),"{""Mn"": 1.0, ""Ce"": 1.0, ""Al"": 2.0, ""Fe"": 1.0, ""Si"": 3.0, ""O"": 13.0, ""H"": 1.0}",598.117,#556B2F,monoclinic,"{8,19,34,35}",2.072408e-06
Uklonskovite,NaMg(SO4)F·2H2O,"{""Na"": 1.0, ""Mg"": 1.0, ""S"": 1.0, ""O"": 6.0, ""F"": 1.0, ""H"": 4.0}",198.379,#FFFFFF,monoclinic,{47},3.003e-09
Ulexite,NaCaB5O6(OH)6·5H2O,"{""Na"": 1.0, ""Ca"": 1.0, ""B"": 5.0, ""O"": 17.0, ""H"": 16.0}",405.229,#FFFFFF,triclinic,{25},4.7619e-08
Ullmannite,NiSbS,"{""Ni"": 1.0, ""Sb"": 1.0, ""S"": 1.0}",212.513,#A9A9A9,triclinic,{33},2.51e-10
Ulrichite,CaCu(UO2)(PO4)2·4H2O,"{""Ca"": 1.0, ""Cu"": 1.0, ""U"": 1.0, ""O"": 14.0, ""P"": 2.0, ""H"": 8.0}",635.652,#FFFFFF,monoclinic,{22},4.049e-09
Ulvospinel,Fe2+2TiO4,"{""Fe"": 2.0, ""Ti"": 1.0, ""O"": 4.0}",223.553,#8B4513,cubic,"{5,6,8,31,35,40}",4.815909e-06
Umangite,Cu3Se2,"{""Cu"": 3.0, ""Se"": 2.0}",348.58,#00BFFF,tetragonal,{33},1.2547e-08
Umbite,K2ZrSi3O9·H2O,"{""K"": 2.0, ""Zr"": 1.0, ""Si"": 3.0, ""O"": 10.0, ""H"": 2.0}",415.681,#FFFFFF,orthorhombic,{35},1.3774e-08
Umbrianite,K7Na2Ca2[Al3Si10O29]F2Cl2,"{""K"": 7.0, ""Na"": 2.0, ""Ca"": 2.0, ""Al"": 3.0, ""Si"": 10.0, ""O"": 29.0, ""F"": 2.0, ""Cl"": 2.0}",1334.485,#FFFFFF,orthorhombic,{35},6.89e-10
Umohoite,(UO2)(MoO4)·2H2O,"{""U"": 1.0, ""O"": 8.0, ""Mo"": 1.0, ""H"": 4.0}",466.004,#FFFFFF,monoclinic,{47},1.5015e-07
Ungavaite,Pd4Sb3,"{""Pd"": 4.0, ""Sb"": 3.0}",790.96,#A9A9A9,tetragonal,"{33,36,37}",1.20985e-07
Ungemachite,K3Na8Fe3+(SO4)6(NO3)2·6H2O,"{""K"": 3.0, ""Na"": 8.0, ""Fe"": 1.0, ""S"": 6.0, ""O"": 36.0, ""N"": 2.0, ""H"": 12.0}",1165.493,#556B2F,hexagonal,{47},3.003e-09
Upalite,Al(UO2)3(PO4)2O(OH)·7H2O,"{""Al"": 1.0, ""U"": 3.0, ""O"": 23.0, ""P"": 2.0, ""H"": 15.0}",1186.117,#FFFFFF,monoclinic,{47},1.5015e-08
Uralborite,CaB2O2(OH)4,"{""Ca"": 1.0, ""B"": 2.0, ""O"": 6.0, ""H"": 4.0}",161.724,#FFFFFF,monoclinic,{23},1.758794e-06
Uralolite,Ca2Be4(PO4)3(OH)3·5H2O,"{""Ca"": 2.0, ""Be"": 4.0, ""P"": 3.0, ""O"": 20.0, ""H"": 13.0}",542.2108,#FFFFFF,monoclinic,"{34,47}",1.6788e-08
Uramarsite,(NH4)(UO2)(AsO4)·3H2O,"{""N"": 1.0, ""H"": 10.0, ""U"": 1.0, ""O"": 9.0, ""As"": 1.0}",481.03,#FFFFFF,triclinic,{47},1.5015e-07
Uramphite,(NH4)(UO2)(PO4)·3H2O,"{""N"": 1.0, ""H"": 10.0, ""U"": 1.0, ""O"": 9.0, ""P"": 1.0}",437.082,#FFFFFF,triclinic,"{47,50}",1.8678e-08
Urancalcarite,Ca(UO2)3(CO3)(OH)6·3H2O,"{""Ca"": 1.0, ""U"": 3.0, ""O"": 18.0, ""C"": 1.0, ""H"": 12.0}",1066.257,#FFFFFF,orthorhombic,{47},1.5015e-07
Uraninite,UO2,"{""U"": 1.0, ""O"": 2.0}",270.028,#ADFF2F,cubic,"{26,34,35,49,50,53,54}",3.6621e-07