name,formula,elements,density,color,crystal_system,dna
Epidote,Ca2(Al2Fe3+)[Si2O7][SiO4]O(OH),"{""Ca"": 2.0, ""Al"": 2.0, ""Fe"": 1.0, ""Si"": 3.0, ""O"": 13.0, ""H"": 1.0}",483.25,#556B2F,monoclinic,"{""system"": ""monoclinic"", ""scale"": [0.7, 1.0, 1.3], ""optical"": {""transparent"": 0, ""refraction"": 0.0, ""birefringence"": 0.0}}"
Epidote-(Sr),CaSr(Al2Fe3+)[Si2O7][SiO4]O(OH),"{""Ca"": 1.0, ""Sr"": 1.0, ""Al"": 2.0, ""Fe"": 1.0, ""Si"": 3.0, ""O"": 13.0, ""H"": 1.0}",530.79,#556B2F,monoclinic,"{""system"": ""monoclinic"", ""scale"": [0.7, 1.0, 1.3], ""optical"": {""transparent"": 0, ""refraction"": 0.0, ""birefringence"": 0.0}}"
Epifanovite,NaCaCu5(PO4)4[AsO2(OH)2]·7H2O,"{""Na"": 1.0, ""Ca"": 1.0, ""Cu"": 5.0, ""P"": 4.0, ""O"": 27.0, ""As"": 1.0, ""H"": 16.0}",1027.75,#FFFFFF,monoclinic,"{""system"": ""monoclinic"", ""scale"": [0.7, 1.0, 1.3], ""optical"": {""transparent"": 1, ""refraction"": 1.5, ""birefringence"": 0.01}}"
Epistilbite,Ca3[Si18Al6O48]·16H2O,"{""Ca"": 3.0, ""Si"": 18.0, ""Al"": 6.0, ""O"": 64.0, ""H"": 32.0}",1844.0,#FFFFFF,triclinic,"{""system"": ""triclinic"", ""scale"": [0.7, 1.0, 1.3], ""optical"": {""transparent"": 1, ""refraction"": 1.5, ""birefringence"": 0.01}}"
Epsomite,Mg(SO4)·7H2O,"{""Mg"": 1.0, ""S"": 1.0, ""O"": 11.0, ""H"": 14.0}",246.48,#FFFFFF,orthorhombic,"{""system"": ""orthorhombic"", ""scale"": [0.8, 1.0, 1.2], ""optical"": {""transparent"": 1, ""refraction"": 1.5, ""birefringence"": 0.01}}"
Erdite,NaFeS2·2H2O,"{""Na"": 1.0, ""Fe"": 1.0, ""S"": 2.0, ""H"": 4.0, ""O"": 2.0}",178.99,#556B2F,monoclinic,"{""system"": ""monoclinic"", ""scale"": [0.7, 1.0, 1.3], ""optical"": {""transparent"": 0, ""refraction"": 0.0, ""birefringence"": 0.0}}"
Ericaite,Fe2+3B7O13Cl,"{""Fe"": 3.0, ""B"": 7.0, ""O"": 13.0, ""Cl"": 1.0}",486.67,#556B2F,orthorhombic,"{""system"": ""orthorhombic"", ""scale"": [0.8, 1.0, 1.2], ""optical"": {""transparent"": 0, ""refraction"": 0.0, ""birefringence"": 0.0}}"
Ericlaxmanite,Cu4O(AsO4)2,"{""Cu"": 4.0, ""O"": 9.0, ""As"": 2.0}",548.04,#00BFFF,triclinic,"{""system"": ""triclinic"", ""scale"": [0.7, 1.0, 1.3], ""optical"": {""transparent"": 0, ""refraction"": 0.0, ""birefringence"": 0.0}}"
Eringaite,Ca3Sc2(SiO4)3,"{""Ca"": 3.0, ""Sc"": 2.0, ""Si"": 3.0, ""O"": 12.0}",486.43,#FFFFFF,cubic,"{""system"": ""cubic"", ""scale"": [1.0, 1.0, 1.0], ""optical"": {""transparent"": 1, ""refraction"": 1.5, ""birefringence"": 0.0}}"
Eriochalcite,CuCl2·2H2O,"{""Cu"": 1.0, ""Cl"": 2.0, ""H"": 4.0, ""O"": 2.0}",170.48,#FFFFFF,orthorhombic,"{""system"": ""orthorhombic"", ""scale"": [0.8, 1.0, 1.2], ""optical"": {""transparent"": 1, ""refraction"": 1.5, ""birefringence"": 0.01}}"
Erionite-Ca,Ca5[Si26Al10O72]·30H2O,"{""Ca"": 5.0, ""Si"": 26.0, ""Al"": 10.0, ""O"": 102.0, ""H"": 60.0}",2893.02,#FFFFFF,hexagonal,"{""system"": ""hexagonal"", ""scale"": [1.0, 1.0, 1.6], ""optical"": {""transparent"": 1, ""refraction"": 1.5, ""birefringence"": 0.01}}"
Erionite-K,K10[Si26Al10O72]·30H2O,"{""K"": 10.0, ""Si"": 26.0, ""Al"": 10.0, ""O"": 102.0, ""H"": 60.0}",3083.62,#FFFFFF,hexagonal,"{""system"": ""hexagonal"", ""scale"": [1.0, 1.0, 1.6], ""optical"": {""transparent"": 1, ""refraction"": 1.5, ""birefringence"": 0.01}}"
Erionite-Na,Na10[Si26Al10O72]·30H2O,"{""Na"": 10.0, ""Si"": 26.0, ""Al"": 10.0, ""O"": 102.0, ""H"": 60.0}",2922.52,#FFFFFF,hexagonal,"{""system"": ""hexagonal"", ""scale"": [1.0, 1.0, 1.6], ""optical"": {""transparent"": 1, ""refraction"": 1.5, ""birefringence"": 0.01}}"
Erlianite,Fe2+4Fe3+2Si6O15(OH)8,"{""Fe"": 6.0, ""Si"": 6.0, ""O"": 23.0, ""H"": 8.0}",879.7,#556B2F,orthorhombic,"{""system"": ""orthorhombic"", ""scale"": [0.8, 1.0, 1.2], ""optical"": {""transparent"": 0, ""refraction"": 0.0, ""birefringence"": 0.0}}"
Erlichmanite,OsS2,"{""Os"": 1.0, ""S"": 2.0}",254.35,#A9A9A9,cubic,"{""system"": ""cubic"", ""scale"": [1.0, 1.0, 1.0], ""optical"": {""transparent"": 0, ""refraction"": 0.0, ""birefringence"": 0.0}}"
Ermakovite,(NH4)(As2O3)2Br,"{""N"": 1.0, ""H"": 4.0, ""As"": 4.0, ""O"": 6.0, ""Br"": 1.0}",493.62,#FFFFFF,hexagonal,"{""system"": ""hexagonal"", ""scale"": [1.0, 1.0, 1.6], ""optical"": {""transparent"": 1, ""refraction"": 1.5, ""birefringence"": 0.01}}"
Ermeloite,Al(PO4)·H2O,"{""Al"": 1.0, ""P"": 1.0, ""O"": 5.0, ""H"": 2.0}",139.97,#FFFFFF,monoclinic,"{""system"": ""monoclinic"", ""scale"": [0.7, 1.0, 1.3], ""optical"": {""transparent"": 1, ""refraction"": 1.5, ""birefringence"": 0.01}}"
Ernstburkeite,Mg(CH3SO3)2·12H2O,"{""Mg"": 1.0, ""C"": 2.0, ""H"": 30.0, ""S"": 2.0, ""O"": 18.0}",430.69,#FFFFFF,hexagonal,"{""system"": ""hexagonal"", ""scale"": [1.0, 1.0, 1.6], ""optical"": {""transparent"": 1, ""refraction"": 1.5, ""birefringence"": 0.01}}"
Erssonite,CaMg7Fe3+2(OH)18(SO4)2·12H2O,"{""Ca"": 1.0, ""Mg"": 7.0, ""Fe"": 2.0, ""O"": 38.0, ""H"": 42.0, ""S"": 2.0}",1036.41,#556B2F,hexagonal,"{""system"": ""hexagonal"", ""scale"": [1.0, 1.0, 1.6], ""optical"": {""transparent"": 0, ""refraction"": 0.0, ""birefringence"": 0.0}}"
Ertixiite,Na2Si4O9,"{""Na"": 2.0, ""Si"": 4.0, ""O"": 9.0}",302.34,#FFFFFF,cubic,"{""system"": ""cubic"", ""scale"": [1.0, 1.0, 1.0], ""optical"": {""transparent"": 1, ""refraction"": 1.5, ""birefringence"": 0.0}}"
Ertlite,NaAl3Al6(Si4B2O18)(BO3)3(OH)3O,"{""Na"": 1.0, ""Al"": 9.0, ""Si"": 4.0, ""B"": 5.0, ""O"": 31.0, ""H"": 3.0}",931.24,#FFFFFF,hexagonal,"{""system"": ""hexagonal"", ""scale"": [1.0, 1.0, 1.6], ""optical"": {""transparent"": 1, ""refraction"": 1.5, ""birefringence"": 0.01}}"
Erythrite,Co3(AsO4)2·8H2O,"{""Co"": 3.0, ""As"": 2.0, ""O"": 16.0, ""H"": 16.0}",598.76,#FFFFFF,monoclinic,"{""system"": ""monoclinic"", ""scale"": [0.7, 1.0, 1.3], ""optical"": {""transparent"": 1, ""refraction"": 1.5, ""birefringence"": 0.01}}"
Erythrosiderite,K2Fe3+Cl5·H2O,"{""K"": 2.0, ""Fe"": 1.0, ""Cl"": 5.0, ""H"": 2.0, ""O"": 1.0}",329.32,#556B2F,orthorhombic,"{""system"": ""orthorhombic"", ""scale"": [0.8, 1.0, 1.2], ""optical"": {""transparent"": 0, ""refraction"": 0.0, ""birefringence"": 0.0}}"
Erzwiesite,Ag8Pb12Bi16S40,"{""Ag"": 8.0, ""Pb"": 12.0, ""Bi"": 16.0, ""S"": 40.0}",7975.44,#708090,orthorhombic,"{""system"": ""orthorhombic"", ""scale"": [0.8, 1.0, 1.2], ""optical"": {""transparent"": 0, ""refraction"": 0.0, ""birefringence"": 0.0}}"
Eskebornite,CuFeSe2,"{""Cu"": 1.0, ""Fe"": 1.0, ""Se"": 2.0}",277.32,#00BFFF,tetragonal,"{""system"": ""tetragonal"", ""scale"": [1.0, 1.0, 1.4], ""optical"": {""transparent"": 0, ""refraction"": 0.0, ""birefringence"": 0.0}}"
Eskimoite,Ag7Pb10Bi15S36,"{""Ag"": 7.0, ""Pb"": 10.0, ""Bi"": 15.0, ""S"": 36.0}",7115.95,#708090,monoclinic,"{""system"": ""monoclinic"", ""scale"": [0.7, 1.0, 1.3], ""optical"": {""transparent"": 0, ""refraction"": 0.0, ""birefringence"": 0.0}}"
Eskolaite,Cr2O3,"{""Cr"": 2.0, ""O"": 3.0}",152.0,#228B22,hexagonal,"{""system"": ""hexagonal"", ""scale"": [1.0, 1.0, 1.6], ""optical"": {""transparent"": 0, ""refraction"": 0.0, ""birefringence"": 0.0}}"
Espadaite,Na4Ca3Mg2[AsO3(OH)]2[AsO2(OH)2]10(H2O)6·H2O,"{""Na"": 4.0, ""Ca"": 3.0, ""Mg"": 2.0, ""As"": 12.0, ""O"": 55.0, ""H"": 36.0}",2076.15,#FFFFFF,orthorhombic,"{""system"": ""orthorhombic"", ""scale"": [0.8, 1.0, 1.2], ""optical"": {""transparent"": 1, ""refraction"": 1.5, ""birefringence"": 0.01}}"
Esperanzaite,NaCa2Al2(AsO4)2F4(OH)·2H2O,"{""Na"": 1.0, ""Ca"": 2.0, ""Al"": 2.0, ""As"": 2.0, ""O"": 11.0, ""F"": 4.0, ""H"": 5.0}",563.99,#FFFFFF,monoclinic,"{""system"": ""monoclinic"", ""scale"": [0.7, 1.0, 1.3], ""optical"": {""transparent"": 1, ""refraction"": 1.5, ""birefringence"": 0.01}}"
Esquireite,BaSi6O13·7H2O,"{""Ba"": 1.0, ""Si"": 6.0, ""O"": 20.0, ""H"": 14.0}",639.98,#FFFFFF,monoclinic,"{""system"": ""monoclinic"", ""scale"": [0.7, 1.0, 1.3], ""optical"": {""transparent"": 1, ""refraction"": 1.5, ""birefringence"": 0.01}}"
Esseneite,CaFe3+AlSiO6,"{""Ca"": 1.0, ""Fe"": 1.0, ""Al"": 1.0, ""Si"": 1.0, ""O"": 6.0}",247.0,#556B2F,monoclinic,"{""system"": ""monoclinic"", ""scale"": [0.7, 1.0, 1.3], ""optical"": {""transparent"": 0, ""refraction"": 0.0, ""birefringence"": 0.0}}"
Ettringite,Ca6Al2(SO4)3(OH)12·27H2O,"{""Ca"": 6.0, ""Al"": 2.0, ""S"": 3.0, ""O"": 51.0, ""H"": 66.0}",1273.15,#FFFFFF,hexagonal,"{""system"": ""hexagonal"", ""scale"": [1.0, 1.0, 1.6], ""optical"": {""transparent"": 1, ""refraction"": 1.5, ""birefringence"": 0.01}}"
Eucairite,CuAgSe,"{""Cu"": 1.0, ""Ag"": 1.0, ""Se"": 1.0}",250.38,#00BFFF,orthorhombic,"{""system"": ""orthorhombic"", ""scale"": [0.8, 1.0, 1.2], ""optical"": {""transparent"": 0, ""refraction"": 0.0, ""birefringence"": 0.0}}"
Euchlorine,KNaCu3O(SO4)3,"{""K"": 1.0, ""Na"": 1.0, ""Cu"": 3.0, ""O"": 13.0, ""S"": 3.0}",556.92,#FFFFFF,monoclinic,"{""system"": ""monoclinic"", ""scale"": [0.7, 1.0, 1.3], ""optical"": {""transparent"": 1, ""refraction"": 1.5, ""birefringence"": 0.01}}"
Euchroite,Cu2(AsO4)(OH)·3H2O,"{""Cu"": 2.0, ""As"": 1.0, ""O"": 8.0, ""H"": 7.0}",337.08,#FFFFFF,orthorhombic,"{""system"": ""orthorhombic"", ""scale"": [0.8, 1.0, 1.2], ""optical"": {""transparent"": 1, ""refraction"": 1.5, ""birefringence"": 0.01}}"
Euclase,BeAlSiO4(OH),"{""Be"": 1.0, ""Al"": 1.0, ""Si"": 1.0, ""O"": 5.0, ""H"": 1.0}",145.09,#FFFFFF,monoclinic,"{""system"": ""monoclinic"", ""scale"": [0.7, 1.0, 1.3], ""optical"": {""transparent"": 1, ""refraction"": 1.5, ""birefringence"": 0.01}}"
Eucryptite,LiAlSiO4,"{""Li"": 1.0, ""Al"": 1.0, ""Si"": 1.0, ""O"": 4.0}",126.01,#FFFFFF,hexagonal,"{""system"": ""hexagonal"", ""scale"": [1.0, 1.0, 1.6], ""optical"": {""transparent"": 1, ""refraction"": 1.5, ""birefringence"": 0.01}}"
Eudidymite,Na2Be2Si6O15·H2O,"{""Na"": 2.0, ""Be"": 2.0, ""Si"": 6.0, ""O"": 16.0, ""H"": 2.0}",490.56,#FFFFFF,monoclinic,"{""system"": ""monoclinic"", ""scale"": [0.7, 1.0, 1.3], ""optical"": {""transparent"": 1, ""refraction"": 1.5, ""birefringence"": 0.01}}"
Eugenite,Ag11Hg2,"{""Ag"": 11.0, ""Hg"": 2.0}",1587.75,#C0C0C0,cubic,"{""system"": ""cubic"", ""scale"": [1.0, 1.0, 1.0], ""optical"": {""transparent"": 0, ""refraction"": 0.0, ""birefringence"": 0.0}}"
Eugsterite,Na4Ca(SO4)3·2H2O,"{""Na"": 4.0, ""Ca"": 1.0, ""S"": 3.0, ""O"": 14.0, ""H"": 4.0}",456.25,#FFFFFF,,"{""system"": """", ""scale"": [1.0, 1.0, 1.0], ""optical"": {""transparent"": 1, ""refraction"": 1.5, ""birefringence"": 0.01}}"
Eulytine,Bi4(SiO4)3,"{""Bi"": 4.0, ""Si"": 3.0, ""O"": 12.0}",1112.19,#D2B48C,cubic,"{""system"": ""cubic"", ""scale"": [1.0, 1.0, 1.0], ""optical"": {""transparent"": 0, ""refraction"": 0.0, ""birefringence"": 0.0}}"
Euxenite-(Y),Y(NbTi)O6,"{""Y"": 1.0, ""Nb"": 1.0, ""Ti"": 1.0, ""O"": 6.0}",325.69,#FFFFFF,orthorhombic,"{""system"": ""orthorhombic"", ""scale"": [0.8, 1.0, 1.2], ""optical"": {""transparent"": 1, ""refraction"": 1.5, ""birefringence"": 0.01}}"
Evanichite,Pb6Cr3+(Cr6+O4)2(SO4)(OH)7FCl,"{""Pb"": 6.0, ""Cr"": 3.0, ""O"": 19.0, ""S"": 1.0, ""H"": 7.0, ""F"": 1.0, ""Cl"": 1.0}",1796.77,#FFFFFF,hexagonal,"{""system"": ""hexagonal"", ""scale"": [1.0, 1.0, 1.6], ""optical"": {""transparent"": 1, ""refraction"": 1.5, ""birefringence"": 0.01}}"
Evansite,Al3(PO4)(OH)6·8H2O,"{""Al"": 3.0, ""P"": 1.0, ""O"": 18.0, ""H"": 22.0}",422.09,#FFFFFF,,"{""system"": """", ""scale"": [1.0, 1.0, 1.0], ""optical"": {""transparent"": 1, ""refraction"": 1.5, ""birefringence"": 0.01}}"
Evdokimovite,Tl4(VO)3(SO4)5(H2O)5,"{""Tl"": 4.0, ""V"": 3.0, ""O"": 28.0, ""S"": 5.0, ""H"": 10.0}",1588.72,#FFFFFF,monoclinic,"{""system"": ""monoclinic"", ""scale"": [0.7, 1.0, 1.3], ""optical"": {""transparent"": 1, ""refraction"": 1.5, ""birefringence"": 0.01}}"
Evenkite,C23H48,"{""C"": 23.0, ""H"": 48.0}",324.61,#FFFFFF,orthorhombic,"{""system"": ""orthorhombic"", ""scale"": [0.8, 1.0, 1.2], ""optical"": {""transparent"": 1, ""refraction"": 1.5, ""birefringence"": 0.01}}"
Evseevite,Na2Mg(AsO4)F,"{""Na"": 2.0, ""Mg"": 1.0, ""As"": 1.0, ""O"": 4.0, ""F"": 1.0}",228.21,#FFFFFF,orthorhombic,"{""system"": ""orthorhombic"", ""scale"": [0.8, 1.0, 1.2], ""optical"": {""transparent"": 1, ""refraction"": 1.5, ""birefringence"": 0.01}}"
Ewingite,Mg8Ca8(UO2)24(CO3)30O4(OH)12(H2O)138,"{""Mg"": 8.0, ""Ca"": 8.0, ""U"": 24.0, ""O"": 292.0, ""C"": 30.0, ""H"": 288.0}",11550.44,#FFFFFF,tetragonal,"{""system"": ""tetragonal"", ""scale"": [1.0, 1.0, 1.4], ""optical"": {""transparent"": 1, ""refraction"": 1.5, ""birefringence"": 0.01}}"
Eyselite,Fe3+Ge4+3O7(OH),"{""Fe"": 1.0, ""Ge"": 3.0, ""O"": 8.0, ""H"": 1.0}",402.75,#556B2F,orthorhombic,"{""system"": ""orthorhombic"", ""scale"": [0.8, 1.0, 1.2], ""optical"": {""transparent"": 0, ""refraction"": 0.0, ""birefringence"": 0.0}}"
Ezcurrite,Na2B5O7(OH)3·2H2O,"{""Na"": 2.0, ""B"": 5.0, ""O"": 12.0, ""H"": 7.0}",299.09,#FFFFFF,triclinic,"{""system"": ""triclinic"", ""scale"": [0.7, 1.0, 1.3], ""optical"": {""transparent"": 1, ""refraction"": 1.5, ""birefringence"": 0.01}}"
Ezochiite,Cu+(Rh3+Pt4+)S4,"{""Cu"": 1.0, ""Rh"": 1.0, ""Pt"": 1.0, ""S"": 4.0}",489.78,#A9A9A9,cubic,"{""system"": ""cubic"", ""scale"": [1.0, 1.0, 1.0], ""optical"": {""transparent"": 0, ""refraction"": 0.0, ""birefringence"": 0.0}}"
Eztlite,Pb2Fe3+3(Te4+O3)3(SO4)O2Cl,"{""Pb"": 2.0, ""Fe"": 3.0, ""Te"": 3.0, ""O"": 15.0, ""S"": 1.0, ""Cl"": 1.0}",1272.26,#556B2F,monoclinic,"{""system"": ""monoclinic"", ""scale"": [0.7, 1.0, 1.3], ""optical"": {""transparent"": 0, ""refraction"": 0.0, ""birefringence"": 0.0}}"
Fabianite,CaB3O5(OH),"{""Ca"": 1.0, ""B"": 3.0, ""O"": 6.0, ""H"": 1.0}",169.52,#FFFFFF,monoclinic,"{""system"": ""monoclinic"", ""scale"": [0.7, 1.0, 1.3], ""optical"": {""transparent"": 1, ""refraction"": 1.5, ""birefringence"": 0.01}}"
Fabriesite,Na3Al3Si3O12·2H2O,"{""Na"": 3.0, ""Al"": 3.0, ""Si"": 3.0, ""O"": 14.0, ""H"": 4.0}",462.21,#FFFFFF,orthorhombic,"{""system"": ""orthorhombic"", ""scale"": [0.8, 1.0, 1.2], ""optical"": {""transparent"": 1, ""refraction"": 1.5, ""birefringence"": 0.01}}"
Fairbankite,Pb2+12(Te4+O3)11(SO4),"{""Pb"": 12.0, ""Te"": 11.0, ""O"": 37.0, ""S"": 1.0}",4514.06,#FFFFFF,triclinic,"{""system"": ""triclinic"", ""scale"": [0.7, 1.0, 1.3], ""optical"": {""transparent"": 1, ""refraction"": 1.5, ""birefringence"": 0.01}}"
Fairchildite,K2Ca(CO3)2,"{""K"": 2.0, ""Ca"": 1.0, ""C"": 2.0, ""O"": 6.0}",238.3,#FFFFFF,hexagonal,"{""system"": ""hexagonal"", ""scale"": [1.0, 1.0, 1.6], ""optical"": {""transparent"": 1, ""refraction"": 1.5, ""birefringence"": 0.01}}"
Faizievite,Li6K2Na(Ca6Na)Ti4(Si6O18)2(Si12O30)F2,"{""Li"": 6.0, ""K"": 2.0, ""Na"": 2.0, ""Ca"": 6.0, ""Ti"": 4.0, ""Si"": 24.0, ""O"": 66.0, ""F"": 2.0}",2365.94,#FFFFFF,triclinic,"{""system"": ""triclinic"", ""scale"": [0.7, 1.0, 1.3], ""optical"": {""transparent"": 1, ""refraction"": 1.5, ""birefringence"": 0.01}}"
Falcondoite,Ni4Si6O15(OH)2·6H2O,"{""Ni"": 4.0, ""Si"": 6.0, ""O"": 23.0, ""H"": 14.0}",785.41,#FFFFFF,orthorhombic,"{""system"": ""orthorhombic"", ""scale"": [0.8, 1.0, 1.2], ""optical"": {""transparent"": 1, ""refraction"": 1.5, ""birefringence"": 0.01}}"
Falgarite,K4(VO)3(SO4)5,"{""K"": 4.0, ""V"": 3.0, ""O"": 23.0, ""S"": 5.0}",837.52,#FFFFFF,monoclinic,"{""system"": ""monoclinic"", ""scale"": [0.7, 1.0, 1.3], ""optical"": {""transparent"": 1, ""refraction"": 1.5, ""birefringence"": 0.01}}"
Falkmanite,Pb3Sb2S6,"{""Pb"": 3.0, ""Sb"": 2.0, ""S"": 6.0}",1057.48,#708090,monoclinic,"{""system"": ""monoclinic"", ""scale"": [0.7, 1.0, 1.3], ""optical"": {""transparent"": 0, ""refraction"": 0.0, ""birefringence"": 0.0}}"
Famatinite,Cu3SbS4,"{""Cu"": 3.0, ""Sb"": 1.0, ""S"": 4.0}",440.65,#A9A9A9,tetragonal,"{""system"": ""tetragonal"", ""scale"": [1.0, 1.0, 1.4], ""optical"": {""transparent"": 0, ""refraction"": 0.0, ""birefringence"": 0.0}}"
Fangite,Tl3AsS4,"{""Tl"": 3.0, ""As"": 1.0, ""S"": 4.0}",816.3,#FFD700,orthorhombic,"{""system"": ""orthorhombic"", ""scale"": [0.8, 1.0, 1.2], ""optical"": {""transparent"": 0, ""refraction"": 0.0, ""birefringence"": 0.0}}"
Fanguangite,(MoO2)(PO3OH)·4H2O,"{""Mo"": 1.0, ""O"": 10.0, ""P"": 1.0, ""H"": 9.0}",295.99,#FFFFFF,triclinic,"{""system"": ""triclinic"", ""scale"": [0.7, 1.0, 1.3], ""optical"": {""transparent"": 1, ""refraction"": 1.5, ""birefringence"": 0.01}}"
Farneseite,Na46Ca10(Si42Al42O168)(SO4)12·6H2O,"{""Na"": 46.0, ""Ca"": 10.0, ""Si"": 42.0, ""Al"": 42.0, ""O"": 222.0, ""S"": 12.0, ""H"": 12.0}",7720.1,#FFFFFF,hexagonal,"{""system"": ""hexagonal"", ""scale"": [1.0, 1.0, 1.6], ""optical"": {""transparent"": 1, ""refraction"": 1.5, ""birefringence"": 0.01}}"
Farringtonite,Mg3(PO4)2,"{""Mg"": 3.0, ""P"": 2.0, ""O"": 8.0}",262.87,#FFFFFF,monoclinic,"{""system"": ""monoclinic"", ""scale"": [0.7, 1.0, 1.3], ""optical"": {""transparent"": 1, ""refraction"": 1.5, ""birefringence"": 0.01}}"
Fassinaite,Pb2(CO3)(S2O3),"{""Pb"": 2.0, ""C"": 1.0, ""O"": 6.0, ""S"": 2.0}",586.53,#FFFFFF,orthorhombic,"{""system"": ""orthorhombic"", ""scale"": [0.8, 1.0, 1.2], ""optical"": {""transparent"": 1, ""refraction"": 1.5, ""birefringence"": 0.01}}"
Favreauite,PbBiCu6O4(SeO3)4(OH)·H2O,"{""Pb"": 1.0, ""Bi"": 1.0, ""Cu"": 6.0, ""O"": 18.0, ""Se"": 4.0, ""H"": 3.0}",1404.34,#FFFFFF,tetragonal,"{""system"": ""tetragonal"", ""scale"": [1.0, 1.0, 1.4], ""optical"": {""transparent"": 1, ""refraction"": 1.5, ""birefringence"": 0.01}}"
Fayalite,Fe2+2(SiO4),"{""Fe"": 2.0, ""Si"": 1.0, ""O"": 4.0}",203.79,#8B4513,orthorhombic,"{""system"": ""orthorhombic"", ""scale"": [0.8, 1.0, 1.2], ""optical"": {""transparent"": 0, ""refraction"": 0.0, ""birefringence"": 0.0}}"
Fedorovskite,Ca2Mg2B4O7(OH)6,"{""Ca"": 2.0, ""Mg"": 2.0, ""B"": 4.0, ""O"": 13.0, ""H"": 6.0}",386.07,#FFFFFF,orthorhombic,"{""system"": ""orthorhombic"", ""scale"": [0.8, 1.0, 1.2], ""optical"": {""transparent"": 1, ""refraction"": 1.5, ""birefringence"": 0.01}}"
Fedotovite,K2Cu3O(SO4)3,"{""K"": 2.0, ""Cu"": 3.0, ""O"": 13.0, ""S"": 3.0}",573.03,#FFFFFF,monoclinic,"{""system"": ""monoclinic"", ""scale"": [0.7, 1.0, 1.3], ""optical"": {""transparent"": 1, ""refraction"": 1.5, ""birefringence"": 0.01}}"
Fehrite,MgCu4(SO4)2(OH)6·6H2O,"{""Mg"": 1.0, ""Cu"": 4.0, ""S"": 2.0, ""O"": 20.0, ""H"": 18.0}",680.77,#FFFFFF,monoclinic,"{""system"": ""monoclinic"", ""scale"": [0.7, 1.0, 1.3], ""optical"": {""transparent"": 1, ""refraction"": 1.5, ""birefringence"": 0.01}}"
Feiite,Fe2+2(Fe2+Ti4+)O5,"{""Fe"": 3.0, ""Ti"": 1.0, ""O"": 5.0}",295.42,#8B4513,orthorhombic,"{""system"": ""orthorhombic"", ""scale"": [0.8, 1.0, 1.2], ""optical"": {""transparent"": 0, ""refraction"": 0.0, ""birefringence"": 0.0}}"
Felbertalite,Cu2Pb6Bi8S19,"{""Cu"": 2.0, ""Pb"": 6.0, ""Bi"": 8.0, ""S"": 19.0}",3651.28,#708090,monoclinic,"{""system"": ""monoclinic"", ""scale"": [0.7, 1.0, 1.3], ""optical"": {""transparent"": 0, ""refraction"": 0.0, ""birefringence"": 0.0}}"
Felsobanyaite,Al4(SO4)(OH)10·4H2O,"{""Al"": 4.0, ""S"": 1.0, ""O"": 18.0, ""H"": 18.0}",446.12,#FFFFFF,monoclinic,"{""system"": ""monoclinic"", ""scale"": [0.7, 1.0, 1.3], ""optical"": {""transparent"": 1, ""refraction"": 1.5, ""birefringence"": 0.01}}"
Fenaksite,KNaFe2+Si4O10,"{""K"": 1.0, ""Na"": 1.0, ""Fe"": 1.0, ""Si"": 4.0, ""O"": 10.0}",390.3,#556B2F,triclinic,"{""system"": ""triclinic"", ""scale"": [0.7, 1.0, 1.3], ""optical"": {""transparent"": 0, ""refraction"": 0.0, ""birefringence"": 0.0}}"
Fencooperite,Ba6Fe3+3Si8O23(CO3)2Cl3·H2O,"{""Ba"": 6.0, ""Fe"": 3.0, ""Si"": 8.0, ""O"": 30.0, ""C"": 2.0, ""Cl"": 3.0, ""H"": 2.0}",1828.64,#556B2F,hexagonal,"{""system"": ""hexagonal"", ""scale"": [1.0, 1.0, 1.6], ""optical"": {""transparent"": 0, ""refraction"": 0.0, ""birefringence"": 0.0}}"
Fengruiite,[Ag6Sb2S7][Ag9CuS2Te2],"{""Ag"": 15.0, ""Sb"": 2.0, ""S"": 9.0, ""Cu"": 1.0, ""Te"": 2.0}",2468.86,#A9A9A9,hexagonal,"{""system"": ""hexagonal"", ""scale"": [1.0, 1.0, 1.6], ""optical"": {""transparent"": 0, ""refraction"": 0.0, ""birefringence"": 0.0}}"
Feodosiyite,Cu11Mg2Cl18(OH)8·16H2O,"{""Cu"": 11.0, ""Mg"": 2.0, ""Cl"": 18.0, ""O"": 24.0, ""H"": 40.0}",1810.09,#FFFFFF,monoclinic,"{""system"": ""monoclinic"", ""scale"": [0.7, 1.0, 1.3], ""optical"": {""transparent"": 1, ""refraction"": 1.5, ""birefringence"": 0.01}}"