name,formula,elements,density,color,crystal,pm_ids,gacha_weight
Cyanochroite,K2Cu(SO4)2·6H2O,"{""K"": 2.0, ""Cu"": 1.0, ""S"": 2.0, ""O"": 14.0, ""H"": 12.0}",441.944,#FFFFFF,monoclinic,"{25,45,47,55,56}",6.583e-09
Cyanotrichite,Cu4Al2(SO4)(OH)12(H2O)2,"{""Cu"": 4.0, ""Al"": 2.0, ""S"": 1.0, ""O"": 18.0, ""H"": 16.0}",644.318,#FFFFFF,unknown,{47},3.003e-09
Cylindrite,FePb3Sn4Sb2S14,"{""Fe"": 1.0, ""Pb"": 3.0, ""Sn"": 4.0, ""Sb"": 2.0, ""S"": 14.0}",1844.645,#DAA520,triclinic,{33},2.51e-10
Cyrilovite,NaFe3+3(PO4)2(OH)4·2H2O,"{""Na"": 1.0, ""Fe"": 3.0, ""P"": 2.0, ""O"": 14.0, ""H"": 8.0}",484.523,#556B2F,tetragonal,{47},1.5015e-08
Czochralskiite,Na4Ca3Mg(PO4)4,"{""Na"": 4.0, ""Ca"": 3.0, ""Mg"": 1.0, ""P"": 4.0, ""O"": 16.0}",616.379,#FFFFFF,orthorhombic,{5},1.0638e-08
Dansite,Na21Mg(SO4)10Cl3,"{""Na"": 21.0, ""Mg"": 1.0, ""S"": 10.0, ""O"": 40.0, ""Cl"": 3.0}",1574.005,#FFFFFF,cubic,"{25,45,55}",2.182e-09
Dansite-(Fe),Na21Fe(SO4)10Cl3,"{""Na"": 21.0, ""Fe"": 1.0, ""S"": 10.0, ""O"": 40.0, ""Cl"": 3.0}",1605.545,#556B2F,cubic,"{25,55}",1.71e-09
Dansite-(Mn),Na21Mn(SO4)10Cl3,"{""Na"": 21.0, ""Mn"": 1.0, ""S"": 10.0, ""O"": 40.0, ""Cl"": 3.0}",1604.638,#FFFFFF,cubic,"{25,55}",1.71e-09
Dachiardite-Ca,Ca2(Si20Al4)O48·13H2O,"{""Ca"": 2.0, ""Si"": 20.0, ""Al"": 4.0, ""O"": 61.0, ""H"": 26.0}",1751.931,#FFFFFF,monoclinic,"{10,14,16,23}",2.777669e-06
Dachiardite-K,K4(Si20Al4)O48·13H2O,"{""K"": 4.0, ""Si"": 20.0, ""Al"": 4.0, ""O"": 61.0, ""H"": 26.0}",1828.167,#FFFFFF,monoclinic,"{9,10,14,23}",2.932897e-06
Dachiardite-Na,Na4(Si20Al4)O48·13H2O,"{""Na"": 4.0, ""Si"": 20.0, ""Al"": 4.0, ""O"": 61.0, ""H"": 26.0}",1763.735,#FFFFFF,monoclinic,"{9,10,14,23}",5.237316e-06
Dacostaite,K(Mg2Al)[Mg(H2O)6]2(AsO4)2F6·2H2O,"{""K"": 1.0, ""Mg"": 4.0, ""Al"": 1.0, ""H"": 28.0, ""O"": 22.0, ""As"": 2.0, ""F"": 6.0}",807.334,#FFFFFF,monoclinic,{},5e-08
Dadsonite,Pb23Sb25S60Cl,"{""Pb"": 23.0, ""Sb"": 25.0, ""S"": 60.0, ""Cl"": 1.0}",9768.65,#708090,triclinic,"{23,33}",3.5427e-08
Dagenaisite,Zn3Te6+O6,"{""Zn"": 3.0, ""Te"": 1.0, ""O"": 6.0}",419.734,#FFFFFF,monoclinic,{47},1.5015e-07
Daliranite,PbHgAs2S5,"{""Pb"": 1.0, ""Hg"": 1.0, ""As"": 2.0, ""S"": 5.0}",717.934,#708090,monoclinic,{33},2.51e-10
Dalnegorskite,Ca5Mn(Si3O9)2,"{""Ca"": 5.0, ""Mn"": 1.0, ""Si"": 6.0, ""O"": 18.0}",711.82,#FFFFFF,triclinic,"{22,31,32}",4.642e-09
Dalyite,K2ZrSi6O15,"{""K"": 2.0, ""Zr"": 1.0, ""Si"": 6.0, ""O"": 15.0}",577.915,#FFFFFF,triclinic,"{9,35}",9.2514e-08
Damaraite,Pb3O2(OH)Cl,"{""Pb"": 3.0, ""O"": 3.0, ""H"": 1.0, ""Cl"": 1.0}",706.055,#FFFFFF,orthorhombic,{32},2.4272e-08
Damiaoite,PtIn2,"{""Pt"": 1.0, ""In"": 2.0}",424.72,#FFFFFF,cubic,"{7,12}",1.5882e-07
Danalite,Be3Fe2+4(SiO4)3S,"{""Be"": 3.0, ""Fe"": 4.0, ""Si"": 3.0, ""O"": 12.0, ""S"": 1.0}",558.7196,#556B2F,cubic,"{23,34,35,40}",2.23894e-07
Danbaite,CuZn2,"{""Cu"": 1.0, ""Zn"": 2.0}",194.306,#00BFFF,cubic,"{7,33}",9.3848e-08
Danburite,CaB2Si2O8,"{""Ca"": 1.0, ""B"": 2.0, ""Si"": 2.0, ""O"": 8.0}",245.86,#FFFFFF,orthorhombic,"{19,25,31,32,40}",4.4469404e-05
Dantopaite,Ag5Bi13S22,"{""Ag"": 5.0, ""Bi"": 13.0, ""S"": 22.0}",3961.41,#A9A9A9,monoclinic,{33},2.51e-10
Daomanite,CuPtAsS2,"{""Cu"": 1.0, ""Pt"": 1.0, ""As"": 1.0, ""S"": 2.0}",397.668,#FFD700,monoclinic,{12},1.55e-09
Daqingshanite-(Ce),Sr3Ce(PO4)(CO3)3,"{""Sr"": 3.0, ""Ce"": 1.0, ""P"": 1.0, ""O"": 13.0, ""C"": 3.0}",677.974,#FFFFFF,hexagonal,"{31,35,36}",7.623e-09
Darapiosite,KNa2Mn2(Li2ZnSi12)O30,"{""K"": 1.0, ""Na"": 2.0, ""Mn"": 2.0, ""Li"": 2.0, ""Zn"": 1.0, ""Si"": 12.0, ""O"": 30.0}",1091.204,#FFFFFF,hexagonal,{35},6.89e-10
Darapskite,Na3(SO4)(NO3)·H2O,"{""Na"": 3.0, ""S"": 1.0, ""O"": 8.0, ""N"": 1.0, ""H"": 2.0}",245.045,#FFFFFF,monoclinic,"{21,25,52}",6.262e-09
Dargaite,BaCa12(SiO4)4(SO4)2O3,"{""Ba"": 1.0, ""Ca"": 12.0, ""Si"": 4.0, ""O"": 27.0, ""S"": 2.0}",1226.699,#FFFFFF,hexagonal,{51},1.563e-09
Darrellhenryite,Na(Al2Li)Al6(Si6O18)(BO3)3(OH)3O,"{""Na"": 1.0, ""Al"": 8.0, ""Li"": 1.0, ""Si"": 6.0, ""O"": 31.0, ""B"": 3.0, ""H"": 3.0}",945.719,#FFFFFF,hexagonal,{34},1.773e-08
Dashkovaite,Mg(HCOO)2·2H2O,"{""Mg"": 1.0, ""H"": 6.0, ""C"": 2.0, ""O"": 6.0}",150.369,#FFFFFF,monoclinic,{13},1.49254e-07
Datolite,CaB(SiO4)(OH),"{""Ca"": 1.0, ""B"": 1.0, ""Si"": 1.0, ""O"": 5.0, ""H"": 1.0}",159.976,#FFFFFF,monoclinic,"{23,31,40}",1.1191273e-05
Daubreeite,BiO(OH),"{""Bi"": 1.0, ""O"": 2.0, ""H"": 1.0}",241.986,#D2B48C,tetragonal,"{45,47}",1.73735e-07
Daubreelite,FeCr2S4,"{""Fe"": 1.0, ""Cr"": 2.0, ""S"": 4.0}",288.077,#DAA520,cubic,"{4,5,6}",7.359e-09
Davanite,K2TiSi6O15,"{""K"": 2.0, ""Ti"": 1.0, ""Si"": 6.0, ""O"": 15.0}",534.558,#FFFFFF,triclinic,{35},4.132e-09
Davemaoite,CaSiO3,"{""Ca"": 1.0, ""Si"": 1.0, ""O"": 3.0}",116.16,#FFFFFF,cubic,{39},1.85714e-07
Davidlloydite,Zn3(AsO4)2·4H2O,"{""Zn"": 3.0, ""As"": 2.0, ""O"": 12.0, ""H"": 8.0}",546.036,#FFFFFF,triclinic,{47},1.5015e-07
Davinciite,Na12K3Ca6Fe2+3Zr3(Si26O73OH)Cl2,"{""Na"": 12.0, ""K"": 3.0, ""Ca"": 6.0, ""Fe"": 3.0, ""Zr"": 3.0, ""Si"": 26.0, ""O"": 74.0, ""H"": 1.0, ""Cl"": 2.0}",3060.893,#556B2F,hexagonal,{35},1.3774e-08
Davisite,CaScAlSiO6,"{""Ca"": 1.0, ""Sc"": 1.0, ""Al"": 1.0, ""Si"": 1.0, ""O"": 6.0}",236.095,#FFFFFF,monoclinic,{3},2.08333e-07
Davreuxite,Mn2+Al6Si4O17(OH)2,"{""Mn"": 1.0, ""Al"": 6.0, ""Si"": 4.0, ""O"": 19.0, ""H"": 2.0}",635.167,#FFFFFF,monoclinic,{40},4.70219e-07
Dawsonite,NaAl(CO3)(OH)2,"{""Na"": 1.0, ""Al"": 1.0, ""C"": 1.0, ""O"": 5.0, ""H"": 2.0}",143.994,#FFFFFF,orthorhombic,"{22,48,50}",2.17961e-07
Deanesmithite,Hg1+2Hg2+3S2O(CrO4),"{""Hg"": 5.0, ""S"": 2.0, ""O"": 5.0, ""Cr"": 1.0}",1199.061,#FFFFFF,triclinic,"{13,47}",5.988e-09
Decagonite,Al71Ni24Fe5,"{""Al"": 71.0, ""Ni"": 24.0, ""Fe"": 5.0}",3603.579,#7FFF00,unknown,{6},4.878e-08
Decrespignyite-(Y),Y4Cu(CO3)4Cl(OH)5·2H2O,"{""Y"": 4.0, ""Cu"": 1.0, ""C"": 4.0, ""O"": 19.0, ""Cl"": 1.0, ""H"": 9.0}",815.717,#FFFFFF,hexagonal,{47},1.5015e-07
Deerite,Fe2+6Fe3+3(Si6O17)O3(OH)5,"{""Fe"": 9.0, ""Si"": 6.0, ""O"": 25.0, ""H"": 5.0}",1076.13,#556B2F,monoclinic,"{32,39}",3.17545e-07
Dekatriasartorite,TlPb58As97S204,"{""Tl"": 1.0, ""Pb"": 58.0, ""As"": 97.0, ""S"": 204.0}",26029.654,#708090,monoclinic,{33},2.51e-10
Delafossite,Cu1+Fe3+O2,"{""Cu"": 1.0, ""Fe"": 1.0, ""O"": 2.0}",151.389,#00BFFF,hexagonal,"{33,47}",1.62697e-07
Delhayelite,K7Na3Ca5Al2Si14O38F4Cl2,"{""K"": 7.0, ""Na"": 3.0, ""Ca"": 5.0, ""Al"": 2.0, ""Si"": 14.0, ""O"": 38.0, ""F"": 4.0, ""Cl"": 2.0}",1745.054,#FFFFFF,orthorhombic,{35},6.89e-10
Deliensite,Fe2+(UO2)2(SO4)2(OH)2·7H2O,"{""Fe"": 1.0, ""U"": 2.0, ""O"": 21.0, ""S"": 2.0, ""H"": 16.0}",948.132,#556B2F,orthorhombic,{47},3.003e-09
Dellagiustaite,V2+Al2O4,"{""V"": 1.0, ""Al"": 2.0, ""O"": 4.0}",168.902,#FFFFFF,cubic,"{9,33}",9.1287e-08
Dellaite,Ca6(Si2O7)(SiO4)(OH)2,"{""Ca"": 6.0, ""Si"": 3.0, ""O"": 13.0, ""H"": 2.0}",534.726,#FFFFFF,triclinic,{31},3.6517e-08
Deloryite,Cu4(UO2)Mo2O8(OH)6,"{""Cu"": 4.0, ""U"": 1.0, ""O"": 16.0, ""Mo"": 2.0, ""H"": 6.0}",946.146,#FFFFFF,monoclinic,{47},1.5015e-07
Delrioite,Sr(VO3)2·4H2O,"{""Sr"": 1.0, ""V"": 2.0, ""O"": 10.0, ""H"": 8.0}",357.558,#FFFFFF,monoclinic,{55},3.7879e-08
Deltanitrogen,N,"{""N"": 1.0}",14.007,#FFFFFF,orthorhombic,{},1e-06
Delvauxite,CaFe3+4(PO4)2(OH)8·4-5H2O,"{""Ca"": 1.0, ""Fe"": 4.0, ""P"": 2.0, ""O"": 21.0, ""H"": 18.0}",679.529,#556B2F,unknown,{47},1.5015e-08
Demagistrisite,BaCa2Mn3+4(Si3O10)(Si2O7)(OH)4·3H2O,"{""Ba"": 1.0, ""Ca"": 2.0, ""Mn"": 4.0, ""Si"": 5.0, ""O"": 24.0, ""H"": 10.0}",971.719,#FFFFFF,orthorhombic,{32},1.214e-09
Demartinite,K2SiF6,"{""K"": 2.0, ""Si"": 1.0, ""F"": 6.0}",220.269,#FFFFFF,hexagonal,{45},1.179e-09
Demesmaekerite,Pb2Cu5(UO2)2(Se4+O3)6(OH)6·2H2O,"{""Pb"": 2.0, ""Cu"": 5.0, ""U"": 2.0, ""O"": 30.0, ""Se"": 6.0, ""H"": 10.0}",2172.066,#FFFFFF,triclinic,{47},1.5015e-07
Demicheleite-(Br),BiSBr,"{""Bi"": 1.0, ""S"": 1.0, ""Br"": 1.0}",320.944,#A9A9A9,orthorhombic,{11},5.556e-09
Demicheleite-(Cl),BiSCl,"{""Bi"": 1.0, ""S"": 1.0, ""Cl"": 1.0}",276.49,#A9A9A9,orthorhombic,{11},5.556e-09
Demicheleite-(I),BiSI,"{""Bi"": 1.0, ""S"": 1.0, ""I"": 1.0}",367.94,#A9A9A9,orthorhombic,{11},5.556e-09
Dendoraite-(NH4),(NH4)2NaAl(C2O4)(PO3OH)2(H2O)2,"{""N"": 2.0, ""H"": 14.0, ""Na"": 1.0, ""Al"": 1.0, ""C"": 2.0, ""O"": 14.0, ""P"": 2.0}",402.054,#FFFFFF,monoclinic,"{52,55}",1.7677e-08
Denisovite,KCa2Si3O8F,"{""K"": 1.0, ""Ca"": 2.0, ""Si"": 3.0, ""O"": 8.0, ""F"": 1.0}",350.499,#FFFFFF,monoclinic,{35},6.89e-10
Denningite,CaMn2+Te4+4O10,"{""Ca"": 1.0, ""Mn"": 1.0, ""Te"": 4.0, ""O"": 10.0}",765.406,#FFFFFF,tetragonal,"{33,47}",8.135e-09
Derbylite,Fe3+4Ti4+3Sb3+O13(OH),"{""Fe"": 4.0, ""Ti"": 3.0, ""Sb"": 1.0, ""O"": 14.0, ""H"": 1.0}",713.735,#556B2F,monoclinic,"{47,57}",1.0627e-07
Derriksite,Cu4(UO2)(Se4+O3)2(OH)6,"{""Cu"": 4.0, ""U"": 1.0, ""O"": 14.0, ""Se"": 2.0, ""H"": 6.0}",880.19,#FFFFFF,orthorhombic,{47},1.5015e-07
Dervillite,Ag2AsS2,"{""Ag"": 2.0, ""As"": 1.0, ""S"": 2.0}",354.782,#FFD700,monoclinic,{33},2.51e-10
Desautelsite,Mg6Mn3+2(OH)16(CO3)·4H2O,"{""Mg"": 6.0, ""Mn"": 2.0, ""O"": 23.0, ""H"": 24.0, ""C"": 1.0}",659.886,#FFFFFF,hexagonal,"{7,13}",1.1528e-08
Descloizite,PbZn(VO4)(OH),"{""Pb"": 1.0, ""Zn"": 1.0, ""V"": 1.0, ""O"": 5.0, ""H"": 1.0}",404.525,#FFFFFF,orthorhombic,"{32,47}",1.74422e-07
Desorite,Pb2(Fe3+6Zn)O2(PO4)4(OH)8,"{""Pb"": 2.0, ""Fe"": 6.0, ""Zn"": 1.0, ""O"": 26.0, ""P"": 4.0, ""H"": 8.0}",1362.784,#556B2F,triclinic,{},1e-07
Despujolsite,Ca3Mn4+(SO4)2(OH)6·3H2O,"{""Ca"": 3.0, ""Mn"": 1.0, ""S"": 2.0, ""O"": 17.0, ""H"": 12.0}",523.371,#FFFFFF,hexagonal,"{32,47}",3.488e-09
Destinezite,Fe3+2(PO4)(SO4)(OH)·6H2O,"{""Fe"": 2.0, ""P"": 1.0, ""O"": 15.0, ""S"": 1.0, ""H"": 13.0}",427.813,#556B2F,triclinic,{47},3.003e-09
Deveroite-(Ce),Ce2(C2O4)3·10H2O,"{""Ce"": 2.0, ""C"": 6.0, ""O"": 22.0, ""H"": 20.0}",724.444,#FFFFFF,monoclinic,{53},8.547e-08
Devilliersite,Ca4Ca2Fe3+10O4[(Fe3+10Si2)O36],"{""Ca"": 6.0, ""Fe"": 20.0, ""O"": 40.0, ""Si"": 2.0}",2053.498,#556B2F,triclinic,{51},1.01562e-07
Devilline,CaCu4(SO4)2(OH)6·3H2O,"{""Ca"": 1.0, ""Cu"": 4.0, ""S"": 2.0, ""O"": 17.0, ""H"": 12.0}",642.461,#FFFFFF,monoclinic,"{47,55,56}",5.159e-09
Devitoite,Ba6Fe2+7Fe3+2(Si4O12)2(PO4)2(CO3)O2(OH)4,"{""Ba"": 6.0, ""Fe"": 9.0, ""Si"": 8.0, ""O"": 41.0, ""P"": 2.0, ""C"": 1.0, ""H"": 4.0}",2285.215,#556B2F,triclinic,{47},1.5015e-08
Dewindtite,H2Pb3(UO2)6O4(PO4)4·12H2O,"{""H"": 26.0, ""Pb"": 3.0, ""U"": 6.0, ""O"": 44.0, ""P"": 4.0}",2903.84,#FFFFFF,orthorhombic,{47},1.5015e-08
Diaboleite,CuPb2Cl2(OH)4,"{""Cu"": 1.0, ""Pb"": 2.0, ""Cl"": 2.0, ""O"": 4.0, ""H"": 4.0}",616.874,#FFFFFF,tetragonal,"{47,56}",2.2008e-07
Diadochite,Fe3+2(PO4)(SO4)(OH)·6H2O,"{""Fe"": 2.0, ""P"": 1.0, ""O"": 15.0, ""S"": 1.0, ""H"": 13.0}",427.813,#556B2F,unknown,"{21,31,47,50,52,54}",1.0462e-08
Diamond,C,"{""C"": 1.0}",12.011,#FFFFFF,orthorhombic,"{1,6,26,30,38}",1.260919e-06
Diaoyudaoite,NaAl11O17,"{""Na"": 1.0, ""Al"": 11.0, ""O"": 17.0}",591.775,#FFFFFF,hexagonal,"{51,56}",3.70138e-07
Diaphorite,Ag3Pb2Sb3S8,"{""Ag"": 3.0, ""Pb"": 2.0, ""Sb"": 3.0, ""S"": 8.0}",1359.77,#708090,monoclinic,{33},2.51e-10
Diaspore,AlO(OH),"{""Al"": 1.0, ""O"": 2.0, ""H"": 1.0}",59.988,#FFFFFF,orthorhombic,"{22,48}",5.2586e-07
Dickinsonite-(KMnNa),K(NaMn)CaNa3AlMn13(PO4)12(OH)2,"{""K"": 1.0, ""Na"": 4.0, ""Mn"": 14.0, ""Ca"": 1.0, ""Al"": 1.0, ""P"": 12.0, ""O"": 50.0, ""H"": 2.0}",2140.904,#FFFFFF,monoclinic,{34},8.87e-10
Dickite,Al2Si2O5(OH)4,"{""Al"": 2.0, ""Si"": 2.0, ""O"": 9.0, ""H"": 4.0}",258.157,#FFFFFF,monoclinic,"{16,28,40}",3.0522125e-05
Dickthomssenite,MgV2O6·7H2O,"{""Mg"": 1.0, ""V"": 2.0, ""O"": 13.0, ""H"": 14.0}",348.288,#FFFFFF,monoclinic,{47},1.5015e-07
Diegogattaite,Na2CaCu2Si8O20·H2O,"{""Na"": 2.0, ""Ca"": 1.0, ""Cu"": 2.0, ""Si"": 8.0, ""O"": 21.0, ""H"": 2.0}",775.825,#FFFFFF,monoclinic,{22},4.0486e-08
Dienerite,Ni3As,"{""Ni"": 3.0, ""As"": 1.0}",251.001,#7FFF00,unknown,{33},1.2547e-08
Dietrichite,ZnAl2(SO4)4·22H2O,"{""Zn"": 1.0, ""Al"": 2.0, ""S"": 4.0, ""O"": 38.0, ""H"": 44.0}",899.898,#FFFFFF,monoclinic,"{45,47,55}",4.232e-09
Dietzeite,Ca2(IO3)2(CrO4)·H2O,"{""Ca"": 2.0, ""I"": 2.0, ""O"": 11.0, ""Cr"": 1.0, ""H"": 2.0}",563.957,#FFFFFF,monoclinic,{25},4.7619e-08
Dimorphite,As4S3,"{""As"": 4.0, ""S"": 3.0}",395.868,#FFD700,orthorhombic,"{11,47}",8.559e-09
Dinilawiite,[Pb4OAl(OH)6]2(S2O3)2·(S2O3)(H2O)5,"{""Pb"": 8.0, ""O"": 28.0, ""Al"": 2.0, ""H"": 22.0, ""S"": 6.0}",2374.072,#FFFFFF,monoclinic,{},2e-08
Dinite,C20H36,"{""C"": 20.0, ""H"": 36.0}",276.508,#FFFFFF,orthorhombic,{53},8.547e-08
Diopside,CaMgSi2O6,"{""Ca"": 1.0, ""Mg"": 1.0, ""Si"": 2.0, ""O"": 6.0}",216.547,#FFFFFF,monoclinic,"{6,7,20,31,35,36,37,38,40,50,54}",1.3102638e-05
Dioptase,CuSiO3·H2O,"{""Cu"": 1.0, ""Si"": 1.0, ""O"": 4.0, ""H"": 2.0}",157.643,#FFFFFF,hexagonal,{47},1.5015e-07
Dioskouriite,CaCu4Cl6(OH)4·4H2O,"{""Ca"": 1.0, ""Cu"": 4.0, ""Cl"": 6.0, ""O"": 8.0, ""H"": 12.0}",647.05,#FFFFFF,orthorhombic,{45},2.3585e-08
Direnzoite,NaK6MgCa2(Al13Si47)O120·36H2O,"{""Na"": 1.0, ""K"": 6.0, ""Mg"": 1.0, ""Ca"": 2.0, ""Al"": 13.0, ""Si"": 47.0, ""O"": 156.0, ""H"": 72.0}",4601.22,#FFFFFF,orthorhombic,{10},1.21495e-07
Dissakisite-(Ce),CaCe(Al2Mg)[Si2O7][SiO4]O(OH),"{""Ca"": 1.0, ""Ce"": 1.0, ""Al"": 2.0, ""Mg"": 1.0, ""Si"": 3.0, ""O"": 13.0, ""H"": 1.0}",551.717,#FFFFFF,monoclinic,"{8,19,34,35}",4.1448152e-05
Dissakisite-(La),CaLa(Al2Mg)[Si2O7][SiO4]O(OH),"{""Ca"": 1.0, ""La"": 1.0, ""Al"": 2.0, ""Mg"": 1.0, ""Si"": 3.0, ""O"": 13.0, ""H"": 1.0}",550.507,#FFFFFF,monoclinic,"{8,19,35}",4.1430422e-05
Dittmarite,(NH4)Mg(PO4)·H2O,"{""N"": 1.0, ""H"": 6.0, ""Mg"": 1.0, ""P"": 1.0, ""O"": 5.0}",155.329,#FFFFFF,orthorhombic,{52},1.3889e-08
Dixenite,Cu1+Fe3+Mn2+14(As5+O4)(As3+O3)5(SiO4)2(OH)6,"{""Cu"": 1.0, ""Fe"": 1.0, ""Mn"": 14.0, ""As"": 6.0, ""O"": 33.0, ""Si"": 2.0, ""H"": 6.0}",1928.24,#556B2F,hexagonal,{32},1.214e-09
Djurleite,Cu31S16,"{""Cu"": 31.0, ""S"": 16.0}",2482.886,#A9A9A9,monoclinic,"{12,15,33,47}",1.1054e-08
Dmisokolovite,K3Cu5AlO2(AsO4)4,"{""K"": 3.0, ""Cu"": 5.0, ""Al"": 1.0, ""O"": 18.0, ""As"": 4.0}",1049.676,#FFFFFF,monoclinic,{45},2.3585e-08
Dmisteinbergite,Ca(Al2Si2O8),"{""Ca"": 1.0, ""Al"": 2.0, ""Si"": 2.0, ""O"": 8.0}",278.204,#FFFFFF,hexagonal,"{3,6,50,54}",4.37423e-07
Dmitryivanovite,CaAl2O4,"{""Ca"": 1.0, ""Al"": 2.0, ""O"": 4.0}",158.038,#FFFFFF,monoclinic,{6},6.3415e-08
Dmitryvarlamovite,Ti2(Fe3+Nb)O8,"{""Ti"": 2.0, ""Fe"": 1.0, ""Nb"": 1.0, ""O"": 8.0}",372.477,#556B2F,orthorhombic,{},3e-07
Dobrovolskyite,Na4Ca(SO4)3,"{""Na"": 4.0, ""Ca"": 1.0, ""S"": 3.0, ""O"": 12.0}",420.206,#FFFFFF,hexagonal,{45},4.72e-10
Dobsinaite,Ca2Ca(AsO4)2·2H2O,"{""Ca"": 3.0, ""As"": 2.0, ""O"": 10.0, ""H"": 4.0}",434.1,#FFFFFF,monoclinic,{47},1.5015e-07
Dokuchaevite,Cu8O2(VO4)3Cl3,"{""Cu"": 8.0, ""O"": 14.0, ""V"": 3.0, ""Cl"": 3.0}",991.53,#FFFFFF,triclinic,{45},2.3585e-08
Dolerophanite,Cu2O(SO4),"{""Cu"": 2.0, ""O"": 5.0, ""S"": 1.0}",239.147,#00BFFF,monoclinic,"{45,50,54}",2.059e-09
Dollaseite-(Ce),CaCe(Mg2Al)[Si2O7][SiO4]F(OH),"{""Ca"": 1.0, ""Ce"": 1.0, ""Mg"": 2.0, ""Al"": 1.0, ""Si"": 3.0, ""O"": 12.0, ""F"": 1.0, ""H"": 1.0}",552.039,#FFFFFF,monoclinic,"{31,40}",4.71624e-07
Dolomite,CaMg(CO3)2,"{""Ca"": 1.0, ""Mg"": 1.0, ""C"": 2.0, ""O"": 6.0}",184.399,#FFFFFF,hexagonal,"{6,21,23,24,25,31,32,36,40,44,47,49,53}",1.2882607e-05
Doloresite,V4+3O4(OH)4,"{""V"": 3.0, ""O"": 8.0, ""H"": 4.0}",284.85,#FFFFFF,monoclinic,{47},1.5015e-07
Domerockite,Cu4(AsO4)(AsO3OH)(OH)3·H2O,"{""Cu"": 4.0, ""As"": 2.0, ""O"": 12.0, ""H"": 6.0}",602.064,#FFFFFF,triclinic,{47},1.5015e-07
Domeykite,Cu3As,"{""Cu"": 3.0, ""As"": 1.0}",265.56,#00BFFF,cubic,{33},1.2547e-08
Domitrovicite,Zn(C2H3O3)2·2H2O,"{""Zn"": 1.0, ""C"": 4.0, ""H"": 10.0, ""O"": 8.0}",251.496,#FFFFFF,monoclinic,{},1e-06
Dondoellite,Ca2Fe(PO4)2·2H2O,"{""Ca"": 2.0, ""Fe"": 1.0, ""P"": 2.0, ""O"": 10.0, ""H"": 4.0}",361.971,#556B2F,triclinic,{22},4.049e-09
Dongchuanite,Pb4ZnZn2(PO4)4(OH)2,"{""Pb"": 4.0, ""Zn"": 3.0, ""P"": 4.0, ""O"": 18.0, ""H"": 2.0}",1438.834,#FFFFFF,triclinic,{47},1.5015e-08
Donharrisite,Ni3HgS3,"{""Ni"": 3.0, ""Hg"": 1.0, ""S"": 3.0}",472.849,#A9A9A9,monoclinic,{33},2.51e-10
Donnayite-(Y),NaSr3CaY(CO3)6·3H2O,"{""Na"": 1.0, ""Sr"": 3.0, ""Ca"": 1.0, ""Y"": 1.0, ""C"": 6.0, ""O"": 21.0, ""H"": 6.0}",828.927,#FFFFFF,hexagonal,{35},1.3774e-08
Donowensite,Ca(H2O)3Fe3+2(V2O7)2,"{""Ca"": 1.0, ""H"": 6.0, ""O"": 17.0, ""Fe"": 2.0, ""V"": 4.0}",633.567,#556B2F,triclinic,{47},1.5015e-07
Donwilhelmsite,CaAl4Si2O11,"{""Ca"": 1.0, ""Al"": 4.0, ""Si"": 2.0, ""O"": 11.0}",380.165,#FFFFFF,hexagonal,"{6,39}",2.49129e-07
Dorallcharite,TlFe3+3(SO4)2(OH)6,"{""Tl"": 1.0, ""Fe"": 3.0, ""S"": 2.0, ""O"": 14.0, ""H"": 6.0}",666.069,#556B2F,hexagonal,{47},3.003e-09
Dorfmanite,Na2(PO3OH)·2H2O,"{""Na"": 2.0, ""P"": 1.0, ""O"": 6.0, ""H"": 5.0}",177.988,#FFFFFF,orthorhombic,"{34,47}",1.6788e-08
Dorrite,Ca4[Mg3Fe3+9]O4[Si3Al8Fe3+O36],"{""Ca"": 4.0, ""Mg"": 3.0, ""Fe"": 10.0, ""O"": 40.0, ""Si"": 3.0, ""Al"": 8.0}",1731.748,#556B2F,triclinic,"{47,50,51,54,56}",4.90841e-07
Douglasite,K2Fe2+Cl4·2H2O,"{""K"": 2.0, ""Fe"": 1.0, ""Cl"": 4.0, ""H"": 4.0, ""O"": 2.0}",311.871,#556B2F,unknown,{25},4.7619e-08
Dovyrenite,Ca6Zr(Si2O7)2(OH)4,"{""Ca"": 6.0, ""Zr"": 1.0, ""Si"": 4.0, ""O"": 18.0, ""H"": 4.0}",736.046,#FFFFFF,orthorhombic,{35},1.3774e-08
Downeyite,SeO2,"{""Se"": 1.0, ""O"": 2.0}",110.969,#FFFFFF,tetragonal,"{45,50,54}",1.0295e-07
Downsite,K2(MoO3)3(SO4)·4H2O,"{""K"": 2.0, ""Mo"": 3.0, ""O"": 17.0, ""S"": 1.0, ""H"": 8.0}",678.153,#FFFFFF,monoclinic,{},2e-08
Doyleite,Al(OH)3,"{""Al"": 1.0, ""O"": 3.0, ""H"": 3.0}",78.003,#FFFFFF,triclinic,"{22,34}",1.68827e-07
Dozyite,Mg7Al2(Si4Al2)O15(OH)12,"{""Mg"": 7.0, ""Al"": 4.0, ""Si"": 4.0, ""O"": 27.0, ""H"": 12.0}",834.472,#FFFFFF,monoclinic,"{25,40}",1.228761e-05
Dravertite,CuMg(SO4)2,"{""Cu"": 1.0, ""Mg"": 1.0, ""S"": 2.0, ""O"": 8.0}",279.963,#FFFFFF,monoclinic,{45},4.72e-10
Dravite,NaMg3Al6(Si6O18)(BO3)3(OH)3(OH),"{""Na"": 1.0, ""Mg"": 3.0, ""Al"": 6.0, ""Si"": 6.0, ""O"": 31.0, ""B"": 3.0, ""H"": 4.0}",958.738,#FFFFFF,triclinic,"{19,23,26,34,40}",4.6185948e-05
Dresserite,Ba2Al4(CO3)4(OH)8·3H2O,"{""Ba"": 2.0, ""Al"": 4.0, ""C"": 4.0, ""O"": 23.0, ""H"": 14.0}",812.721,#FFFFFF,orthorhombic,"{26,31}",6.809e-08
Dreyerite,Bi(VO4),"{""Bi"": 1.0, ""V"": 1.0, ""O"": 4.0}",323.918,#D2B48C,tetragonal,"{9,53}",1.6421e-07
Driekopite,PtBi,"{""Pt"": 1.0, ""Bi"": 1.0}",404.06,#D2B48C,hexagonal,{},1e-06
Dritsite,Li2Al4(OH)12Cl2·3H2O,"{""Li"": 2.0, ""Al"": 4.0, ""O"": 15.0, ""H"": 18.0, ""Cl"": 2.0}",450.837,#FFFFFF,hexagonal,{23},1.758794e-06
Drobecite,Cd(SO4)·4H2O,"{""Cd"": 1.0, ""S"": 1.0, ""O"": 8.0, ""H"": 8.0}",280.526,#FFFFFF,monoclinic,{47},3.003e-09
Droninoite,Ni6Fe3+2(OH)16Cl2·4H2O,"{""Ni"": 6.0, ""Fe"": 2.0, ""O"": 20.0, ""H"": 24.0, ""Cl"": 2.0}",878.92,#556B2F,hexagonal,{47},1.5015e-07
Drugmanite,Pb2Fe3+(PO4)(PO3OH)(OH)2,"{""Pb"": 2.0, ""Fe"": 1.0, ""P"": 2.0, ""O"": 10.0, ""H"": 3.0}",695.207,#556B2F,monoclinic,{47},1.5015e-08
Drysdallite,MoSe2,"{""Mo"": 1.0, ""Se"": 2.0}",253.892,#FFFFFF,hexagonal,{33},1.2547e-08
Dubinskaite,Ca4Sc2Al4[Be2Si8O30](OH)2,"{""Ca"": 4.0, ""Sc"": 2.0, ""Al"": 4.0, ""Be"": 2.0, ""Si"": 8.0, ""O"": 32.0, ""H"": 2.0}",1114.8404,#FFFFFF,triclinic,{},1e-06
Dufrenoysite,Pb2As2S5,"{""Pb"": 2.0, ""As"": 2.0, ""S"": 5.0}",724.544,#708090,monoclinic,{33},2.51e-10
Duftite,PbCu(AsO4)(OH),"{""Pb"": 1.0, ""Cu"": 1.0, ""As"": 1.0, ""O"": 5.0, ""H"": 1.0}",426.671,#FFFFFF,orthorhombic,{47},1.5015e-07
Dugganite,Pb3Zn3(TeO6)(AsO4)2,"{""Pb"": 3.0, ""Zn"": 3.0, ""Te"": 1.0, ""O"": 14.0, ""As"": 2.0}",1319.17,#FFFFFF,hexagonal,{47},1.5015e-07
Dukeite,Bi3+24Cr6+8O57(OH)6·3H2O,"{""Bi"": 24.0, ""Cr"": 8.0, ""O"": 66.0, ""H"": 12.0}",6499.518,#FFFFFF,hexagonal,{47},1.5015e-07
Dulanggouite,Bi6Te3,"{""Bi"": 6.0, ""Te"": 3.0}",1636.68,#D2B48C,hexagonal,{},1e-06
Dumontite,Pb2(UO2)3O2(PO4)2·5H2O,"{""Pb"": 2.0, ""U"": 3.0, ""O"": 21.0, ""P"": 2.0, ""H"": 10.0}",1536.497,#FFFFFF,monoclinic,{47},1.5015e-08
Dumortierite,AlAl6BSi3O18,"{""Al"": 7.0, ""B"": 1.0, ""Si"": 3.0, ""O"": 18.0}",571.921,#FFFFFF,orthorhombic,"{23,40}",1.1163183e-05