name,formula,elements,density,color,crystal_system,dna
Villamaninite,CuS2,"{""Cu"": 1.0, ""S"": 2.0}",127.67,#A9A9A9,monoclinic,"{""system"": ""monoclinic"", ""scale"": [0.7, 1.0, 1.3], ""optical"": {""transparent"": 0, ""refraction"": 0.0, ""birefringence"": 0.0}}"
Villiaumite,NaF,"{""Na"": 1.0, ""F"": 1.0}",41.99,#FFFFFF,cubic,"{""system"": ""cubic"", ""scale"": [1.0, 1.0, 1.0], ""optical"": {""transparent"": 1, ""refraction"": 1.5, ""birefringence"": 0.0}}"
Vimsite,CaB2O2(OH)4,"{""Ca"": 1.0, ""B"": 2.0, ""O"": 6.0, ""H"": 4.0}",161.73,#FFFFFF,monoclinic,"{""system"": ""monoclinic"", ""scale"": [0.7, 1.0, 1.3], ""optical"": {""transparent"": 1, ""refraction"": 1.5, ""birefringence"": 0.01}}"
Vincentite,Pd3As,"{""Pd"": 3.0, ""As"": 1.0}",394.18,#808080,monoclinic,"{""system"": ""monoclinic"", ""scale"": [0.7, 1.0, 1.3], ""optical"": {""transparent"": 0, ""refraction"": 0.0, ""birefringence"": 0.0}}"
Violarite,FeNi2S4,"{""Fe"": 1.0, ""Ni"": 2.0, ""S"": 4.0}",301.47,#DAA520,cubic,"{""system"": ""cubic"", ""scale"": [1.0, 1.0, 1.0], ""optical"": {""transparent"": 0, ""refraction"": 0.0, ""birefringence"": 0.0}}"
Virgilite,LiAlSi2O6,"{""Li"": 1.0, ""Al"": 1.0, ""Si"": 2.0, ""O"": 6.0}",186.1,#FFFFFF,hexagonal,"{""system"": ""hexagonal"", ""scale"": [1.0, 1.0, 1.6], ""optical"": {""transparent"": 1, ""refraction"": 1.5, ""birefringence"": 0.01}}"
Virgilluethite,MoO3·H2O,"{""Mo"": 1.0, ""O"": 4.0, ""H"": 2.0}",161.97,#FFFFFF,monoclinic,"{""system"": ""monoclinic"", ""scale"": [0.7, 1.0, 1.3], ""optical"": {""transparent"": 1, ""refraction"": 1.5, ""birefringence"": 0.01}}"
Vishnevite,Na8(Al6Si6)O24(SO4)·2H2O,"{""Na"": 8.0, ""Al"": 6.0, ""Si"": 6.0, ""O"": 30.0, ""S"": 1.0, ""H"": 4.0}",1030.43,#FFFFFF,hexagonal,"{""system"": ""hexagonal"", ""scale"": [1.0, 1.0, 1.6], ""optical"": {""transparent"": 1, ""refraction"": 1.5, ""birefringence"": 0.01}}"
Viskontite,Pb5Cu2(SO4)3(SeO3)(OH)6,"{""Pb"": 5.0, ""Cu"": 2.0, ""S"": 3.0, ""O"": 21.0, ""Se"": 1.0, ""H"": 6.0}",1680.29,#FFFFFF,orthorhombic,"{""system"": ""orthorhombic"", ""scale"": [0.8, 1.0, 1.2], ""optical"": {""transparent"": 1, ""refraction"": 1.5, ""birefringence"": 0.01}}"
Vitimite,Ca6B14O19(SO4)(OH)14·5H2O,"{""Ca"": 6.0, ""B"": 14.0, ""O"": 42.0, ""S"": 1.0, ""H"": 24.0}",1120.07,#FFFFFF,monoclinic,"{""system"": ""monoclinic"", ""scale"": [0.7, 1.0, 1.3], ""optical"": {""transparent"": 1, ""refraction"": 1.5, ""birefringence"": 0.01}}"
Vitusite-(Ce),Na3Ce(PO4)2,"{""Na"": 3.0, ""Ce"": 1.0, ""P"": 2.0, ""O"": 8.0}",399.03,#FFFFFF,orthorhombic,"{""system"": ""orthorhombic"", ""scale"": [0.8, 1.0, 1.2], ""optical"": {""transparent"": 1, ""refraction"": 1.5, ""birefringence"": 0.01}}"
Vivianite,Fe2+3(PO4)2·8H2O,"{""Fe"": 3.0, ""P"": 2.0, ""O"": 16.0, ""H"": 16.0}",501.62,#556B2F,monoclinic,"{""system"": ""monoclinic"", ""scale"": [0.7, 1.0, 1.3], ""optical"": {""transparent"": 0, ""refraction"": 0.0, ""birefringence"": 0.0}}"
Vladimirite,Ca4(AsO4)2(AsO3OH)·4H2O,"{""Ca"": 4.0, ""As"": 3.0, ""O"": 16.0, ""H"": 9.0}",650.15,#FFFFFF,monoclinic,"{""system"": ""monoclinic"", ""scale"": [0.7, 1.0, 1.3], ""optical"": {""transparent"": 1, ""refraction"": 1.5, ""birefringence"": 0.01}}"
Vladykinite,Na3Sr4(Fe2+Fe3+)Si8O24,"{""Na"": 3.0, ""Sr"": 4.0, ""Fe"": 2.0, ""Si"": 8.0, ""O"": 24.0}",1139.87,#556B2F,monoclinic,"{""system"": ""monoclinic"", ""scale"": [0.7, 1.0, 1.3], ""optical"": {""transparent"": 0, ""refraction"": 0.0, ""birefringence"": 0.0}}"
Vlasovite,Na2ZrSi4O11,"{""Na"": 2.0, ""Zr"": 1.0, ""Si"": 4.0, ""O"": 11.0}",425.56,#FFFFFF,monoclinic,"{""system"": ""monoclinic"", ""scale"": [0.7, 1.0, 1.3], ""optical"": {""transparent"": 1, ""refraction"": 1.5, ""birefringence"": 0.01}}"
Vlodavetsite,Ca2Al(SO4)2F2Cl·4H2O,"{""Ca"": 2.0, ""Al"": 1.0, ""S"": 2.0, ""O"": 12.0, ""F"": 2.0, ""Cl"": 1.0, ""H"": 8.0}",444.77,#FFFFFF,tetragonal,"{""system"": ""tetragonal"", ""scale"": [1.0, 1.0, 1.4], ""optical"": {""transparent"": 1, ""refraction"": 1.5, ""birefringence"": 0.01}}"
Vochtenite,Fe2+Fe3+(UO2)4(PO4)4(OH)·12-13H2O,"{""Fe"": 2.0, ""U"": 4.0, ""O"": 38.0, ""P"": 4.0, ""H"": 27.0}",1822.92,#556B2F,monoclinic,"{""system"": ""monoclinic"", ""scale"": [0.7, 1.0, 1.3], ""optical"": {""transparent"": 0, ""refraction"": 0.0, ""birefringence"": 0.0}}"
Voggite,Na2Zr(PO4)(CO3)(OH)·2H2O,"{""Na"": 2.0, ""Zr"": 1.0, ""P"": 1.0, ""O"": 10.0, ""C"": 1.0, ""H"": 5.0}",345.22,#FFFFFF,monoclinic,"{""system"": ""monoclinic"", ""scale"": [0.7, 1.0, 1.3], ""optical"": {""transparent"": 1, ""refraction"": 1.5, ""birefringence"": 0.01}}"
Voglite,Ca2Cu(UO2)(CO3)4·6H2O,"{""Ca"": 2.0, ""Cu"": 1.0, ""U"": 1.0, ""O"": 20.0, ""C"": 4.0, ""H"": 12.0}",761.88,#FFFFFF,monoclinic,"{""system"": ""monoclinic"", ""scale"": [0.7, 1.0, 1.3], ""optical"": {""transparent"": 1, ""refraction"": 1.5, ""birefringence"": 0.01}}"
Volaschioite,Fe4(SO4)O2(OH)6·2H2O,"{""Fe"": 4.0, ""S"": 1.0, ""O"": 14.0, ""H"": 10.0}",489.54,#556B2F,monoclinic,"{""system"": ""monoclinic"", ""scale"": [0.7, 1.0, 1.3], ""optical"": {""transparent"": 0, ""refraction"": 0.0, ""birefringence"": 0.0}}"
Volborthite,Cu3V2O7(OH)2·2H2O,"{""Cu"": 3.0, ""V"": 2.0, ""O"": 11.0, ""H"": 6.0}",474.58,#FFFFFF,monoclinic,"{""system"": ""monoclinic"", ""scale"": [0.7, 1.0, 1.3], ""optical"": {""transparent"": 1, ""refraction"": 1.5, ""birefringence"": 0.01}}"
Volkovskite,KCa4B22O32(OH)10Cl·4H2O,"{""K"": 1.0, ""Ca"": 4.0, ""B"": 22.0, ""O"": 46.0, ""H"": 18.0, ""Cl"": 1.0}",1226.83,#FFFFFF,triclinic,"{""system"": ""triclinic"", ""scale"": [0.7, 1.0, 1.3], ""optical"": {""transparent"": 1, ""refraction"": 1.5, ""birefringence"": 0.01}}"
Voltaite,K2Fe2+5Fe3+3Al(SO4)12·18H2O,"{""K"": 2.0, ""Fe"": 8.0, ""Al"": 1.0, ""S"": 12.0, ""O"": 66.0, ""H"": 36.0}",2028.99,#556B2F,cubic,"{""system"": ""cubic"", ""scale"": [1.0, 1.0, 1.0], ""optical"": {""transparent"": 0, ""refraction"": 0.0, ""birefringence"": 0.0}}"
Volynskite,AgBiTe2,"{""Ag"": 1.0, ""Bi"": 1.0, ""Te"": 2.0}",572.05,#C0C0C0,hexagonal,"{""system"": ""hexagonal"", ""scale"": [1.0, 1.0, 1.6], ""optical"": {""transparent"": 0, ""refraction"": 0.0, ""birefringence"": 0.0}}"
Vonbezingite,Ca6Cu3(SO4)3(OH)12·2H2O,"{""Ca"": 6.0, ""Cu"": 3.0, ""S"": 3.0, ""O"": 26.0, ""H"": 16.0}",959.44,#FFFFFF,monoclinic,"{""system"": ""monoclinic"", ""scale"": [0.7, 1.0, 1.3], ""optical"": {""transparent"": 1, ""refraction"": 1.5, ""birefringence"": 0.01}}"
Vonsenite,Fe2+2Fe3+O2(BO3),"{""Fe"": 3.0, ""O"": 5.0, ""B"": 1.0}",258.36,#8B4513,orthorhombic,"{""system"": ""orthorhombic"", ""scale"": [0.8, 1.0, 1.2], ""optical"": {""transparent"": 0, ""refraction"": 0.0, ""birefringence"": 0.0}}"
Vorlanite,CaUO4,"{""Ca"": 1.0, ""U"": 1.0, ""O"": 4.0}",342.11,#ADFF2F,cubic,"{""system"": ""cubic"", ""scale"": [1.0, 1.0, 1.0], ""optical"": {""transparent"": 0, ""refraction"": 0.0, ""birefringence"": 0.0}}"
Vorontsovite,(Hg5Cu)TlAs4S12,"{""Hg"": 5.0, ""Cu"": 1.0, ""Tl"": 1.0, ""As"": 4.0, ""S"": 12.0}",1955.28,#FFD700,cubic,"{""system"": ""cubic"", ""scale"": [1.0, 1.0, 1.0], ""optical"": {""transparent"": 0, ""refraction"": 0.0, ""birefringence"": 0.0}}"
Voudourisite,Cd(SO4)·H2O,"{""Cd"": 1.0, ""S"": 1.0, ""O"": 5.0, ""H"": 2.0}",226.49,#FFFFFF,monoclinic,"{""system"": ""monoclinic"", ""scale"": [0.7, 1.0, 1.3], ""optical"": {""transparent"": 1, ""refraction"": 1.5, ""birefringence"": 0.01}}"
Vozhminite,Ni4AsS2,"{""Ni"": 4.0, ""As"": 1.0, ""S"": 2.0}",373.8,#FFD700,hexagonal,"{""system"": ""hexagonal"", ""scale"": [1.0, 1.0, 1.6], ""optical"": {""transparent"": 0, ""refraction"": 0.0, ""birefringence"": 0.0}}"
Vranaite,Al16B4Si4O38,"{""Al"": 16.0, ""B"": 4.0, ""Si"": 4.0, ""O"": 38.0}",1195.28,#FFFFFF,monoclinic,"{""system"": ""monoclinic"", ""scale"": [0.7, 1.0, 1.3], ""optical"": {""transparent"": 1, ""refraction"": 1.5, ""birefringence"": 0.01}}"
Vranciceite,Cu10Hg3S8,"{""Cu"": 10.0, ""Hg"": 3.0, ""S"": 8.0}",1493.75,#A9A9A9,triclinic,"{""system"": ""triclinic"", ""scale"": [0.7, 1.0, 1.3], ""optical"": {""transparent"": 0, ""refraction"": 0.0, ""birefringence"": 0.0}}"
Vrbaite,Hg3Tl4As8Sb2S20,"{""Hg"": 3.0, ""Tl"": 4.0, ""As"": 8.0, ""Sb"": 2.0, ""S"": 20.0}",2903.37,#FFD700,orthorhombic,"{""system"": ""orthorhombic"", ""scale"": [0.8, 1.0, 1.2], ""optical"": {""transparent"": 0, ""refraction"": 0.0, ""birefringence"": 0.0}}"
Vuagnatite,CaAlSiO4(OH),"{""Ca"": 1.0, ""Al"": 1.0, ""Si"": 1.0, ""O"": 5.0, ""H"": 1.0}",176.16,#FFFFFF,orthorhombic,"{""system"": ""orthorhombic"", ""scale"": [0.8, 1.0, 1.2], ""optical"": {""transparent"": 1, ""refraction"": 1.5, ""birefringence"": 0.01}}"
Vulcanite,CuTe,"{""Cu"": 1.0, ""Te"": 1.0}",191.15,#00BFFF,orthorhombic,"{""system"": ""orthorhombic"", ""scale"": [0.8, 1.0, 1.2], ""optical"": {""transparent"": 0, ""refraction"": 0.0, ""birefringence"": 0.0}}"
Vuonnemite,Na6Na2Nb2Na3Ti(Si2O7)2(PO4)2O2(OF),"{""Na"": 11.0, ""Nb"": 2.0, ""Ti"": 1.0, ""Si"": 4.0, ""O"": 25.0, ""P"": 2.0, ""F"": 1.0}",1079.88,#FFFFFF,triclinic,"{""system"": ""triclinic"", ""scale"": [0.7, 1.0, 1.3], ""optical"": {""transparent"": 1, ""refraction"": 1.5, ""birefringence"": 0.01}}"
Vyacheslavite,U4+(PO4)(OH),"{""U"": 1.0, ""P"": 1.0, ""O"": 5.0, ""H"": 1.0}",350.01,#FFFFFF,orthorhombic,"{""system"": ""orthorhombic"", ""scale"": [0.8, 1.0, 1.2], ""optical"": {""transparent"": 1, ""refraction"": 1.5, ""birefringence"": 0.01}}"