name,formula,elements,density,color,crystal,pm_ids,gacha_weight
Arzrunite,Pb2Cu4(SO4)(OH)4Cl6·2H2O,"{""Pb"": 2.0, ""Cu"": 4.0, ""S"": 1.0, ""O"": 10.0, ""H"": 8.0, ""Cl"": 6.0}",1081.398,#FFFFFF,unknown,{47},3.003e-09
Asagiite,NiCu4(SO4)2(OH)6·6H2O,"{""Ni"": 1.0, ""Cu"": 4.0, ""S"": 2.0, ""O"": 20.0, ""H"": 18.0}",715.121,#FFFFFF,monoclinic,{},2e-08
Asbecasite,Ca3TiAs6Be2Si2O20,"{""Ca"": 3.0, ""Ti"": 1.0, ""As"": 6.0, ""Be"": 2.0, ""Si"": 2.0, ""O"": 20.0}",1011.8074,#FFFFFF,hexagonal,{47},4.5045e-08
Asgruvanite-(Ce),Ce16Ca5Al(SiO4)6(AsO3)8(CO3)2Cl4F3(OH)2,"{""Ce"": 16.0, ""Ca"": 5.0, ""Al"": 1.0, ""Si"": 6.0, ""O"": 56.0, ""As"": 8.0, ""C"": 2.0, ""Cl"": 4.0, ""F"": 3.0, ""H"": 2.0}",4357.954,#FFFFFF,hexagonal,{},5e-08
Ashburtonite,HCu4Pb4Si4O12(HCO3)4(OH)4Cl,"{""H"": 9.0, ""Cu"": 4.0, ""Pb"": 4.0, ""Si"": 4.0, ""O"": 28.0, ""C"": 4.0, ""Cl"": 1.0}",1735.862,#FFFFFF,tetragonal,{23},1.758794e-06
Ashcroftine-(Y),K5Na5Y12Si28O70(OH)2(CO3)8·8H2O,"{""K"": 5.0, ""Na"": 5.0, ""Y"": 12.0, ""Si"": 28.0, ""O"": 104.0, ""H"": 18.0, ""C"": 8.0}",3941.82,#FFFFFF,tetragonal,{35},1.3774e-08
Ashoverite,Zn(OH)2,"{""Zn"": 1.0, ""O"": 2.0, ""H"": 2.0}",99.394,#FFFFFF,tetragonal,"{47,56}",2.2008e-07
Asimowite,Fe2SiO4,"{""Fe"": 2.0, ""Si"": 1.0, ""O"": 4.0}",203.771,#8B4513,orthorhombic,{6},9.2683e-08
Asisite,Pb7SiO8Cl2,"{""Pb"": 7.0, ""Si"": 1.0, ""O"": 8.0, ""Cl"": 2.0}",1677.377,#FFFFFF,tetragonal,{47},1.5015e-07
Askagenite-(Nd),Mn2+Nd(Al2Fe3+)[Si2O7][SiO4]O2,"{""Mn"": 1.0, ""Nd"": 1.0, ""Al"": 2.0, ""Fe"": 1.0, ""Si"": 3.0, ""O"": 13.0}",601.229,#556B2F,monoclinic,{34},8.87e-10
Aspidolite,NaMg3(Si3Al)O10(OH)2,"{""Na"": 1.0, ""Mg"": 3.0, ""Si"": 3.0, ""Al"": 1.0, ""O"": 12.0, ""H"": 2.0}",401.146,#FFFFFF,triclinic,"{6,7,36,40}",1.2439485e-05
Asselbornite,Pb(UO2)4(BiO)3(AsO4)2(OH)7·4H2O,"{""Pb"": 1.0, ""U"": 4.0, ""O"": 30.0, ""Bi"": 3.0, ""As"": 2.0, ""H"": 15.0}",2431.194,#FFFFFF,cubic,{47},1.5015e-07
Astrophyllite,K2NaFe2+7Ti2(Si4O12)2O2(OH)4F,"{""K"": 2.0, ""Na"": 1.0, ""Fe"": 7.0, ""Ti"": 2.0, ""Si"": 8.0, ""O"": 30.0, ""H"": 4.0, ""F"": 1.0}",1315.515,#556B2F,triclinic,{35},6.89e-10
Atacamite,Cu2Cl(OH)3,"{""Cu"": 2.0, ""Cl"": 1.0, ""O"": 3.0, ""H"": 3.0}",213.563,#FFFFFF,orthorhombic,"{15,45,47,49,50,54,57}",8.99552e-07
Atelestite,Bi2O(AsO4)(OH),"{""Bi"": 2.0, ""O"": 6.0, ""As"": 1.0, ""H"": 1.0}",589.884,#FFFFFF,monoclinic,"{47,55}",1.88029e-07
Atelisite-(Y),Y4Si3O8(OH)8,"{""Y"": 4.0, ""Si"": 3.0, ""O"": 16.0, ""H"": 8.0}",703.927,#FFFFFF,tetragonal,{34},1.773e-08
Atencioite,Ca2Fe2+3Mg2Be4(PO4)6(OH)4·6H2O,"{""Ca"": 2.0, ""Fe"": 3.0, ""Mg"": 2.0, ""Be"": 4.0, ""P"": 6.0, ""O"": 34.0, ""H"": 16.0}",1078.2878,#556B2F,triclinic,{34},1.773e-09
Athabascaite,Cu5Se4,"{""Cu"": 5.0, ""Se"": 4.0}",633.614,#00BFFF,orthorhombic,"{23,33}",1.771341e-06
Atlasovite,Cu2+6Fe3+Bi3+O4(SO4)5·KCl,"{""Cu"": 6.0, ""Fe"": 1.0, ""Bi"": 1.0, ""O"": 24.0, ""S"": 5.0, ""K"": 1.0, ""Cl"": 1.0}",1264.925,#556B2F,tetragonal,{45},4.72e-10
Atokite,Pd3Sn,"{""Pd"": 3.0, ""Sn"": 1.0}",437.97,#FFFFFF,cubic,"{12,26,33,37}",2.04141e-07
Attakolite,CaMn2+Al4(HSiO4)(PO4)3(OH)4,"{""Ca"": 1.0, ""Mn"": 1.0, ""Al"": 4.0, ""H"": 5.0, ""Si"": 1.0, ""O"": 20.0, ""P"": 3.0}",648.971,#FFFFFF,monoclinic,{47},7.508e-09
Attikaite,Ca3Cu2Al2(AsO4)4(OH)4·2H2O,"{""Ca"": 3.0, ""Cu"": 2.0, ""Al"": 2.0, ""As"": 4.0, ""O"": 22.0, ""H"": 8.0}",961.02,#FFFFFF,orthorhombic,{47},1.5015e-07
Aubertite,Cu2+Al(SO4)2Cl·14H2O,"{""Cu"": 1.0, ""Al"": 1.0, ""S"": 2.0, ""O"": 22.0, ""Cl"": 1.0, ""H"": 28.0}",570.3,#FFFFFF,triclinic,"{45,47,55}",4.232e-09
Auerbakhite,MnTl2As2S5,"{""Mn"": 1.0, ""Tl"": 2.0, ""As"": 2.0, ""S"": 5.0}",773.842,#FFD700,orthorhombic,{33},2.51e-10
Augelite,Al2(PO4)(OH)3,"{""Al"": 2.0, ""P"": 1.0, ""O"": 7.0, ""H"": 3.0}",199.955,#FFFFFF,monoclinic,"{21,31,47}",3.0482e-08
Auriacusite,Fe3+Cu2+(AsO4)O,"{""Fe"": 1.0, ""Cu"": 1.0, ""As"": 1.0, ""O"": 5.0}",274.308,#556B2F,orthorhombic,{47},1.5015e-07
Auricupride,Cu3Au,"{""Cu"": 3.0, ""Au"": 1.0}",387.608,#00BFFF,cubic,"{33,38}",1.0514e-07
Aurihydrargyrumite,Au6Hg5,"{""Au"": 6.0, ""Hg"": 5.0}",2184.77,#FFD700,hexagonal,"{26,33}",5.2547e-08
Aurivilliusite,Hg1+Hg2+OI,"{""Hg"": 2.0, ""O"": 1.0, ""I"": 1.0}",544.079,#FFFFFF,monoclinic,{47},1.5015e-07
Auropearceite,[Ag9AuS4][Ag6As2S7],"{""Ag"": 15.0, ""Au"": 1.0, ""S"": 11.0, ""As"": 2.0}",2317.524,#FFD700,hexagonal,{},2e-08
Auropolybasite,[Ag9AuS4][Ag6Sb2S7],"{""Ag"": 15.0, ""Au"": 1.0, ""S"": 11.0, ""Sb"": 2.0}",2411.2,#A9A9A9,hexagonal,{},2e-08
Aurorite,Mn2+Mn4+3O7·3H2O,"{""Mn"": 4.0, ""O"": 10.0, ""H"": 6.0}",385.79,#FFB6C1,hexagonal,{47},7.508e-09
Auroselenide,AuSe,"{""Au"": 1.0, ""Se"": 1.0}",275.941,#FFD700,monoclinic,{},1e-06
Aurostibite,AuSb2,"{""Au"": 1.0, ""Sb"": 2.0}",440.49,#FFD700,cubic,"{23,33}",1.771341e-06
Austinite,CaZn(AsO4)(OH),"{""Ca"": 1.0, ""Zn"": 1.0, ""As"": 1.0, ""O"": 5.0, ""H"": 1.0}",261.383,#FFFFFF,orthorhombic,{47},1.5015e-07
Autunite,Ca(UO2)2(PO4)2·10-12H2O,"{""Ca"": 1.0, ""U"": 2.0, ""O"": 24.0, ""P"": 2.0, ""H"": 24.0}",986.254,#FFFFFF,orthorhombic,"{31,47,49}",3.0811e-08
Avdeevite,NaAl4(Be5Li)(Si6O18)2(H2O)1-2,"{""Na"": 1.0, ""Al"": 4.0, ""Be"": 5.0, ""Li"": 1.0, ""Si"": 12.0, ""O"": 38.0, ""H"": 4.0}",1131.933,#FFFFFF,hexagonal,{34},1.773e-08
Avdoninite,K2Cu5Cl8(OH)4·2H2O,"{""K"": 2.0, ""Cu"": 5.0, ""Cl"": 8.0, ""O"": 6.0, ""H"": 8.0}",783.584,#FFFFFF,monoclinic,"{45,47}",1.73735e-07
Averievite,Cu5O2(VO4)2·CuCl2,"{""Cu"": 6.0, ""O"": 10.0, ""V"": 2.0, ""Cl"": 2.0}",714.05,#FFFFFF,hexagonal,{45},2.3585e-08
Avicennite,Tl2O3,"{""Tl"": 2.0, ""O"": 3.0}",456.757,#FFFFFF,cubic,"{23,47}",1.908944e-06
Avogadrite,KBF4,"{""K"": 1.0, ""B"": 1.0, ""F"": 4.0}",125.9,#FFFFFF,orthorhombic,{45},1.179e-09
Awaruite,Ni3Fe,"{""Ni"": 3.0, ""Fe"": 1.0}",231.924,#7FFF00,cubic,"{4,5,13,26,36,38}",6.3536e-07
Axelite,Na14Cu7(AsO4)8F2Cl2,"{""Na"": 14.0, ""Cu"": 7.0, ""As"": 8.0, ""O"": 32.0, ""F"": 2.0, ""Cl"": 2.0}",1986.922,#FFFFFF,tetragonal,{45},1.179e-09
Axinite-(Fe),Ca4Fe2+2Al4[B2Si8O30](OH)2,"{""Ca"": 4.0, ""Fe"": 2.0, ""Al"": 4.0, ""B"": 2.0, ""Si"": 8.0, ""O"": 32.0, ""H"": 2.0}",1140.214,#556B2F,triclinic,"{23,32,34,40}",1.1205185e-05
Axinite-(Mg),Ca4Mg2Al4[B2Si8O30](OH)2,"{""Ca"": 4.0, ""Mg"": 2.0, ""Al"": 4.0, ""B"": 2.0, ""Si"": 8.0, ""O"": 32.0, ""H"": 2.0}",1077.134,#FFFFFF,triclinic,"{32,33,34}",5.4549e-08
Axinite-(Mn),Ca4Mn2+2Al4[B2Si8O30](OH)2,"{""Ca"": 4.0, ""Mn"": 2.0, ""Al"": 4.0, ""B"": 2.0, ""Si"": 8.0, ""O"": 32.0, ""H"": 2.0}",1138.4,#FFFFFF,triclinic,"{32,33}",1.841e-09
Azurite,Cu3(CO3)2(OH)2,"{""Cu"": 3.0, ""C"": 2.0, ""O"": 8.0, ""H"": 2.0}",344.668,#FFFFFF,monoclinic,"{47,53}",2.3562e-07
Babanekite,Cu3(AsO4)2·8H2O,"{""Cu"": 3.0, ""As"": 2.0, ""O"": 16.0, ""H"": 16.0}",612.594,#FFFFFF,monoclinic,{47},1.5015e-07
Babefphite,BaBe(PO4)F,"{""Ba"": 1.0, ""Be"": 1.0, ""P"": 1.0, ""O"": 4.0, ""F"": 1.0}",260.3102,#FFFFFF,triclinic,"{31,34}",2.291e-09
Babingtonite,Ca2Fe2+Fe3+Si5O14(OH),"{""Ca"": 2.0, ""Fe"": 2.0, ""Si"": 5.0, ""O"": 15.0, ""H"": 1.0}",573.264,#556B2F,triclinic,"{31,32,34}",9.112e-08
Babunaite-(Nd),Nd(AsO4),"{""Nd"": 1.0, ""As"": 1.0, ""O"": 4.0}",283.158,#808080,tetragonal,{},1e-06
Bacaferrite,BaCaFe4O8,"{""Ba"": 1.0, ""Ca"": 1.0, ""Fe"": 4.0, ""O"": 8.0}",528.78,#556B2F,hexagonal,{},1e-06
Backite,Pb2AlTeO6Cl,"{""Pb"": 2.0, ""Al"": 1.0, ""Te"": 1.0, ""O"": 6.0, ""Cl"": 1.0}",700.426,#FFFFFF,hexagonal,"{23,33}",1.771341e-06
Badakhshanite-(Y),Y2Mn4Al(Si2B7BeO24),"{""Y"": 2.0, ""Mn"": 4.0, ""Al"": 1.0, ""Si"": 2.0, ""B"": 7.0, ""Be"": 1.0, ""O"": 24.0}",949.3742,#FFFFFF,orthorhombic,{34},8.87e-10
Badalovite,NaNaMg(MgFe3+)(AsO4)3,"{""Na"": 2.0, ""Mg"": 2.0, ""Fe"": 1.0, ""As"": 3.0, ""O"": 12.0}",567.189,#556B2F,monoclinic,{45},2.3585e-08
Baddeleyite,ZrO2,"{""Zr"": 1.0, ""O"": 2.0}",123.222,#FFFFFF,orthorhombic,"{3,5,6,7,40}",9.849186e-06
Badengzhuite,TiP,"{""Ti"": 1.0, ""P"": 1.0}",78.841,#FFFFFF,hexagonal,"{36,38}",1.2696e-08
Bafertisite,Ba2Fe2+4Ti2(Si2O7)2O2(OH)2F2,"{""Ba"": 2.0, ""Fe"": 4.0, ""Ti"": 2.0, ""Si"": 4.0, ""O"": 18.0, ""H"": 2.0, ""F"": 2.0}",1034.108,#556B2F,monoclinic,"{23,35}",8.8628e-08
Baghdadite,Ca6Zr2(Si2O7)2O4,"{""Ca"": 6.0, ""Zr"": 2.0, ""Si"": 4.0, ""O"": 18.0}",823.238,#FFFFFF,monoclinic,"{3,31}",2.36423e-07
Bahariyaite,KMnO4,"{""K"": 1.0, ""Mn"": 1.0, ""O"": 4.0}",158.032,#FFB6C1,orthorhombic,{56},3.497e-09
Bahianite,Al5Sb5+3O14(OH)2,"{""Al"": 5.0, ""Sb"": 3.0, ""O"": 16.0, ""H"": 2.0}",758.19,#FFFFFF,monoclinic,"{26,47}",1.9015e-07
Baiamareite,Ag4Pb12Fe4Sb20S48,"{""Ag"": 4.0, ""Pb"": 12.0, ""Fe"": 4.0, ""Sb"": 20.0, ""S"": 48.0}",7115.34,#DAA520,monoclinic,{},2e-08
Bainbridgeite-(NdCe),Na2Ba2NdCe(CO3)6·3H2O,"{""Na"": 2.0, ""Ba"": 2.0, ""Nd"": 1.0, ""Ce"": 1.0, ""C"": 6.0, ""O"": 21.0, ""H"": 6.0}",1019.093,#FFFFFF,triclinic,{},1e-06
Bainbridgeite-(YCe),Na2Ba2YCe(CO3)6·3H2O,"{""Na"": 2.0, ""Ba"": 2.0, ""Y"": 1.0, ""Ce"": 1.0, ""C"": 6.0, ""O"": 21.0, ""H"": 6.0}",963.759,#FFFFFF,triclinic,{35},1.3774e-08
Bairdite,Pb2Cu2+4Te6+2O10(OH)2(SO4)·H2O,"{""Pb"": 2.0, ""Cu"": 4.0, ""Te"": 2.0, ""O"": 17.0, ""H"": 4.0, ""S"": 1.0}",1231.859,#FFFFFF,monoclinic,{47},3.003e-09
Bakakinite,Ca2V2O7,"{""Ca"": 2.0, ""V"": 2.0, ""O"": 7.0}",294.033,#FFFFFF,triclinic,{},1e-06
Bakhchisaraitsevite,Na2Mg5(PO4)4·7H2O,"{""Na"": 2.0, ""Mg"": 5.0, ""P"": 4.0, ""O"": 23.0, ""H"": 14.0}",673.49,#FFFFFF,monoclinic,"{23,36,49,50,54}",2.00239e-07
Baksanite,Bi6Te2S3,"{""Bi"": 6.0, ""Te"": 2.0, ""S"": 3.0}",1605.26,#A9A9A9,hexagonal,{31},5.62e-10
Balangeroite,Mg21Si8O27(OH)20,"{""Mg"": 21.0, ""Si"": 8.0, ""O"": 47.0, ""H"": 20.0}",1507.198,#FFFFFF,triclinic,"{13,38}",3.144e-07
Balestraite,KLi2V5+Si4O12,"{""K"": 1.0, ""Li"": 2.0, ""V"": 1.0, ""Si"": 4.0, ""O"": 12.0}",408.248,#FFFFFF,monoclinic,{32},2.4272e-08
Baliczunicite,Bi2O(SO4)2,"{""Bi"": 2.0, ""O"": 9.0, ""S"": 2.0}",626.071,#FFFF00,triclinic,{45},4.72e-10
Balipholite,LiBaMg2Al3(Si2O6)2(OH)8,"{""Li"": 1.0, ""Ba"": 1.0, ""Mg"": 2.0, ""Al"": 3.0, ""Si"": 4.0, ""O"": 20.0, ""H"": 8.0}",714.21,#FFFFFF,orthorhombic,{32},2.4272e-08
Balkanite,Ag5Cu9HgS8,"{""Ag"": 5.0, ""Cu"": 9.0, ""Hg"": 1.0, ""S"": 8.0}",1568.334,#A9A9A9,monoclinic,{33},2.51e-10
Balyakinite,Cu2+(Te4+O3),"{""Cu"": 1.0, ""Te"": 1.0, ""O"": 3.0}",239.143,#00BFFF,orthorhombic,{47},1.5015e-07
Bamfordite,Fe3+Mo2O6(OH)3·H2O,"{""Fe"": 1.0, ""Mo"": 2.0, ""O"": 10.0, ""H"": 5.0}",412.775,#556B2F,triclinic,{47},1.5015e-07
Banalsite,Na2BaAl4Si4O16,"{""Na"": 2.0, ""Ba"": 1.0, ""Al"": 4.0, ""Si"": 4.0, ""O"": 16.0}",659.562,#FFFFFF,orthorhombic,"{23,32,35,36}",1.831204e-06
Bandylite,CuB(OH)4Cl,"{""Cu"": 1.0, ""B"": 1.0, ""O"": 4.0, ""H"": 4.0, ""Cl"": 1.0}",177.834,#FFFFFF,tetragonal,{47},1.5015e-07
Bararite,(NH4)2SiF6,"{""N"": 2.0, ""H"": 8.0, ""Si"": 1.0, ""F"": 6.0}",178.151,#FFFFFF,hexagonal,"{45,50,54}",5.147e-09
Baratovite,KLi3Ca7Ti2(SiO3)12F2,"{""K"": 1.0, ""Li"": 3.0, ""Ca"": 7.0, ""Ti"": 2.0, ""Si"": 12.0, ""O"": 36.0, ""F"": 2.0}",1387.178,#FFFFFF,monoclinic,{23},8.794e-08
Barberiite,(NH4)BF4,"{""N"": 1.0, ""H"": 4.0, ""B"": 1.0, ""F"": 4.0}",104.841,#FFFFFF,orthorhombic,"{45,50,54}",5.147e-09
Barbosalite,Fe2+Fe3+2(PO4)2(OH)2,"{""Fe"": 3.0, ""P"": 2.0, ""O"": 10.0, ""H"": 2.0}",391.489,#556B2F,monoclinic,"{34,47}",1.6788e-08
Barentsite,Na7Al(HCO3)2(CO3)2F4,"{""Na"": 7.0, ""Al"": 1.0, ""H"": 2.0, ""C"": 4.0, ""O"": 12.0, ""F"": 4.0}",505.952,#FFFFFF,triclinic,"{23,35}",8.8628e-08
Barikaite,Ag3Pb10(Sb8As11)Σ19S40,"{""Ag"": 3.0, ""Pb"": 10.0, ""Sb"": 152.0, ""As"": 209.0, ""S"": 40.0}",37844.228,#708090,monoclinic,{33},2.51e-10
Barioferrite,BaFe3+12O19,"{""Ba"": 1.0, ""Fe"": 12.0, ""O"": 19.0}",1111.451,#8B4513,hexagonal,"{51,54}",1.2086e-07
Bariolakargiite,BaZrO3,"{""Ba"": 1.0, ""Zr"": 1.0, ""O"": 3.0}",276.551,#FFFFFF,cubic,{},1e-06
Bario-orthojoaquinite,Ba4Fe2+2Ti2O2(SiO3)8·H2O,"{""Ba"": 4.0, ""Fe"": 2.0, ""Ti"": 2.0, ""O"": 27.0, ""Si"": 8.0, ""H"": 2.0}",1415.413,#556B2F,orthorhombic,{40},2.821317e-06
Barioperovskite,BaTiO3,"{""Ba"": 1.0, ""Ti"": 1.0, ""O"": 3.0}",233.194,#FFFFFF,orthorhombic,{39},4.2857e-08
Bariosincosite,Ba(VO)2(PO4)2·4H2O,"{""Ba"": 1.0, ""V"": 2.0, ""O"": 14.0, ""P"": 2.0, ""H"": 8.0}",533.212,#FFFFFF,monoclinic,"{21,47}",2.7673e-08
Barlowite,Cu4BrF(OH)6,"{""Cu"": 4.0, ""Br"": 1.0, ""F"": 1.0, ""O"": 6.0, ""H"": 6.0}",455.128,#FFFFFF,hexagonal,{47},7.508e-09
Barnesite,Na2V5+6O16·3H2O,"{""Na"": 2.0, ""V"": 6.0, ""O"": 19.0, ""H"": 6.0}",661.661,#FFFFFF,monoclinic,"{47,56}",2.2008e-07
Barrerite,Na2(Si7Al2)O18·6H2O,"{""Na"": 2.0, ""Si"": 7.0, ""Al"": 2.0, ""O"": 24.0, ""H"": 12.0}",692.611,#FFFFFF,orthorhombic,{10},2.33645e-07
Barstowite,Pb4(CO3)Cl6·H2O,"{""Pb"": 4.0, ""C"": 1.0, ""O"": 4.0, ""Cl"": 6.0, ""H"": 2.0}",1119.523,#FFFFFF,monoclinic,"{23,56,57}",2.032806e-06
Bartelkeite,PbFe2+Ge(Ge2O7)(OH)2·H2O,"{""Pb"": 1.0, ""Fe"": 1.0, ""Ge"": 3.0, ""O"": 10.0, ""H"": 4.0}",644.957,#556B2F,monoclinic,{47},1.5015e-07
Bartonite,K6Fe20S26S,"{""K"": 6.0, ""Fe"": 20.0, ""S"": 27.0}",2217.108,#DAA520,tetragonal,"{33,35}",5.26e-10
Barylite,BaBe2Si2O7,"{""Ba"": 1.0, ""Be"": 2.0, ""Si"": 2.0, ""O"": 7.0}",323.5174,#FFFFFF,monoclinic,"{19,23,32,34}",3.6765831e-05
Barysilite,Pb8Mn(Si2O7)3,"{""Pb"": 8.0, ""Mn"": 1.0, ""Si"": 6.0, ""O"": 21.0}",2217.027,#FFFFFF,hexagonal,"{32,40}",4.71433e-07
Baryte,Ba(SO4),"{""Ba"": 1.0, ""S"": 1.0, ""O"": 4.0}",233.386,#FFFF00,orthorhombic,"{6,14,17,20,24,25,32,33,36,45,46,47,49,50,53,54,55}",3.1672e-08
Barytocalcite,BaCa(CO3)2,"{""Ba"": 1.0, ""Ca"": 1.0, ""C"": 2.0, ""O"": 6.0}",297.424,#FFFFFF,monoclinic,"{23,36}",1.793158e-06
Barytolamprophyllite,(BaK)Ti2Na3Ti(Si2O7)2O2(OH)2,"{""Ba"": 1.0, ""K"": 1.0, ""Ti"": 3.0, ""Na"": 3.0, ""Si"": 4.0, ""O"": 18.0, ""H"": 2.0}",791.337,#FFFFFF,monoclinic,{35},4.132e-09
Bassetite,Fe2+(UO2)2(PO4)2(H2O)10,"{""Fe"": 1.0, ""U"": 2.0, ""O"": 22.0, ""P"": 2.0, ""H"": 20.0}",965.991,#556B2F,tetragonal,{47},1.5015e-08
Bassoite,SrV4+3O7·4H2O,"{""Sr"": 1.0, ""V"": 3.0, ""O"": 11.0, ""H"": 8.0}",424.499,#FFFFFF,monoclinic,{47},1.5015e-07
Bastnasite-(Ce),Ce(CO3)F,"{""Ce"": 1.0, ""C"": 1.0, ""O"": 3.0, ""F"": 1.0}",219.126,#FFFFFF,hexagonal,"{19,23,26,31,34,35,36,40,48}",2.320151e-06
Bastnasite-(La),La(CO3)F,"{""La"": 1.0, ""C"": 1.0, ""O"": 3.0, ""F"": 1.0}",217.916,#FFFFFF,hexagonal,{36},1.718e-09
Bastnasite-(Nd),Nd(CO3)F,"{""Nd"": 1.0, ""C"": 1.0, ""O"": 3.0, ""F"": 1.0}",223.246,#FFFFFF,hexagonal,"{34,35,36}",3.293e-09
Bastnasite-(Y),Y(CO3)F,"{""Y"": 1.0, ""C"": 1.0, ""O"": 3.0, ""F"": 1.0}",167.912,#FFFFFF,hexagonal,"{34,35}",1.575e-09
Batiferrite,BaTi2Fe3+8Fe2+2O19,"{""Ba"": 1.0, ""Ti"": 2.0, ""Fe"": 10.0, ""O"": 19.0}",1095.495,#556B2F,hexagonal,{47},4.5045e-08
Batisite,Na2BaTi2O2(Si2O6)2,"{""Na"": 2.0, ""Ba"": 1.0, ""Ti"": 2.0, ""O"": 14.0, ""Si"": 4.0}",615.37,#FFFFFF,orthorhombic,"{7,35}",2.8522e-08
Batoniite,Al8(SO4)5(OH)14(H2O)18·5H2O,"{""Al"": 8.0, ""S"": 5.0, ""O"": 57.0, ""H"": 60.0}",1348.579,#FFFFFF,triclinic,{},2e-08
Baumhauerite,Pb12As16S36,"{""Pb"": 12.0, ""As"": 16.0, ""S"": 36.0}",4839.312,#708090,triclinic,{33},2.51e-10
Baumhauerite II,Pb3As4S9,"{""Pb"": 3.0, ""As"": 4.0, ""S"": 9.0}",1209.828,#708090,triclinic,{33},2.51e-10
Baumstarkite,Ag3Sb3S6,"{""Ag"": 3.0, ""Sb"": 3.0, ""S"": 6.0}",881.25,#A9A9A9,triclinic,{33},2.51e-10
Bauranoite,BaU2O7·4-5H2O,"{""Ba"": 1.0, ""U"": 2.0, ""O"": 12.0, ""H"": 10.0}",815.458,#FFFFFF,unknown,{47},1.5015e-07
Bavsiite,Ba2V2O2[Si4O12],"{""Ba"": 2.0, ""V"": 2.0, ""O"": 14.0, ""Si"": 4.0}",712.87,#FFFFFF,tetragonal,{32},2.4272e-08
Bayanoboite-(Y),Ba2Y(CO3)2F3,"{""Ba"": 2.0, ""Y"": 1.0, ""C"": 2.0, ""O"": 6.0, ""F"": 3.0}",540.576,#FFFFFF,orthorhombic,{},5e-08
Bayerite,Al(OH)3,"{""Al"": 1.0, ""O"": 3.0, ""H"": 3.0}",78.003,#FFFFFF,monoclinic,"{47,48,51}",1.070449e-06
Bayldonite,Cu3PbO(AsO3OH)2(OH)2,"{""Cu"": 3.0, ""Pb"": 1.0, ""O"": 11.0, ""As"": 2.0, ""H"": 4.0}",727.703,#FFFFFF,monoclinic,{47},1.5015e-07
Bayleyite,Mg2(UO2)(CO3)3·18H2O,"{""Mg"": 2.0, ""U"": 1.0, ""O"": 29.0, ""C"": 3.0, ""H"": 36.0}",822.932,#FFFFFF,monoclinic,"{47,55}",1.88029e-07
Baylissite,K2Mg(CO3)2·4H2O,"{""K"": 2.0, ""Mg"": 1.0, ""C"": 2.0, ""O"": 10.0, ""H"": 8.0}",294.577,#FFFFFF,monoclinic,"{47,55}",1.88029e-07
Bazhenovite,Ca8S5(S2O3)(OH)12·20H2O,"{""Ca"": 8.0, ""S"": 7.0, ""O"": 35.0, ""H"": 52.0}",1157.425,#FFFFFF,monoclinic,{54},8.55e-10
Bazirite,BaZrSi3O9,"{""Ba"": 1.0, ""Zr"": 1.0, ""Si"": 3.0, ""O"": 9.0}",456.8,#FFFFFF,hexagonal,"{19,35}",3.4978809e-05
Bearsite,Be2(AsO4)(OH)·4H2O,"{""Be"": 2.0, ""As"": 1.0, ""O"": 9.0, ""H"": 9.0}",246.0094,#FFFFFF,monoclinic,{47},1.5015e-07
Bearthite,Ca2Al(PO4)2(OH),"{""Ca"": 2.0, ""Al"": 1.0, ""P"": 2.0, ""O"": 9.0, ""H"": 1.0}",314.085,#FFFFFF,monoclinic,"{39,40}",9.54725e-07
Beaverite-(Cu),Pb(Fe3+2Cu)(SO4)2(OH)6,"{""Pb"": 1.0, ""Fe"": 2.0, ""Cu"": 1.0, ""S"": 2.0, ""O"": 14.0, ""H"": 6.0}",676.59,#556B2F,hexagonal,{47},3.003e-09
Beaverite-(Zn),Pb(Fe3+2Zn)(SO4)2(OH)6,"{""Pb"": 1.0, ""Fe"": 2.0, ""Zn"": 1.0, ""S"": 2.0, ""O"": 14.0, ""H"": 6.0}",678.424,#556B2F,hexagonal,{47},3.003e-09
Bechererite,Zn7Cu(OH)13[SiO(OH)3(SO4)],"{""Zn"": 7.0, ""Cu"": 1.0, ""O"": 21.0, ""H"": 16.0, ""Si"": 1.0, ""S"": 1.0}",933.458,#FFFFFF,hexagonal,"{47,55}",3.761e-09
Beckettite,Ca2V6Al6O20,"{""Ca"": 2.0, ""V"": 6.0, ""Al"": 6.0, ""O"": 20.0}",867.68,#FFFFFF,triclinic,{6},4.878e-08
Becquerelite,Ca(UO2)6O4(OH)6·8H2O,"{""Ca"": 1.0, ""U"": 6.0, ""O"": 30.0, ""H"": 22.0}",1970.404,#FFFFFF,hexagonal,"{27,34,47}",1.278992e-06
Bederite,Ca2Mn2+4Fe3+2(PO4)6·2H2O,"{""Ca"": 2.0, ""Mn"": 4.0, ""Fe"": 2.0, ""P"": 6.0, ""O"": 26.0, ""H"": 4.0}",1017.448,#556B2F,orthorhombic,{34},8.87e-10
Beershevaite,CaFe3+3(PO4)3O,"{""Ca"": 1.0, ""Fe"": 3.0, ""P"": 3.0, ""O"": 13.0}",508.522,#556B2F,monoclinic,{51},7.812e-09
Behierite,Ta(BO4),"{""Ta"": 1.0, ""B"": 1.0, ""O"": 4.0}",255.756,#FFFFFF,tetragonal,{34},1.773e-08
Behoite,Be(OH)2,"{""Be"": 1.0, ""O"": 2.0, ""H"": 2.0}",43.0262,#FFFFFF,orthorhombic,"{9,19,34,35}",3.507528e-05
Behounekite,U(SO4)2(H2O)4,"{""U"": 1.0, ""S"": 2.0, ""O"": 12.0, ""H"": 8.0}",502.202,#FFFFFF,orthorhombic,"{47,55}",3.761e-09
Belakovskiite,Na7(UO2)(SO4)4(SO3OH)(H2O)3,"{""Na"": 7.0, ""U"": 1.0, ""O"": 25.0, ""S"": 5.0, ""H"": 7.0}",966.291,#FFFFFF,triclinic,"{47,55}",3.761e-09
Belendorffite,Cu7Hg6,"{""Cu"": 7.0, ""Hg"": 6.0}",1648.362,#00BFFF,hexagonal,{33},1.2547e-08
Belkovite,Ba3Nb6(Si2O7)2O12,"{""Ba"": 3.0, ""Nb"": 6.0, ""Si"": 4.0, ""O"": 26.0}",1497.74,#FFFFFF,hexagonal,"{23,36}",1.793158e-06
Bellidoite,Cu2Se,"{""Cu"": 2.0, ""Se"": 1.0}",206.063,#00BFFF,tetragonal,{33},1.2547e-08
Bellingerite,Cu3(IO3)6·2H2O,"{""Cu"": 3.0, ""I"": 6.0, ""O"": 20.0, ""H"": 4.0}",1276.05,#FFFFFF,triclinic,{47},1.5015e-07
Belloite,Cu(OH)Cl,"{""Cu"": 1.0, ""O"": 1.0, ""H"": 1.0, ""Cl"": 1.0}",116.003,#FFFFFF,monoclinic,"{45,47,55}",2.11614e-07
Belmonteite,CaMn2(AsO4)2(H2O)6·H2O,"{""Ca"": 1.0, ""Mn"": 2.0, ""As"": 2.0, ""O"": 15.0, ""H"": 14.0}",553.895,#FFFFFF,orthorhombic,{},5e-08
Belogubite,CuZn(SO4)2·10H2O,"{""Cu"": 1.0, ""Zn"": 1.0, ""S"": 2.0, ""O"": 18.0, ""H"": 20.0}",501.188,#FFFFFF,triclinic,"{45,47}",3.475e-09
Belomarinaite,KNa(SO4),"{""K"": 1.0, ""Na"": 1.0, ""S"": 1.0, ""O"": 4.0}",158.144,#FFFFFF,hexagonal,{45},4.72e-10
Belousovite,KZn(SO4)Cl,"{""K"": 1.0, ""Zn"": 1.0, ""S"": 1.0, ""O"": 4.0, ""Cl"": 1.0}",235.984,#FFFFFF,monoclinic,{45},4.72e-10
Belovite-(Ce),NaCeSr3(PO4)3F,"{""Na"": 1.0, ""Ce"": 1.0, ""Sr"": 3.0, ""P"": 3.0, ""O"": 12.0, ""F"": 1.0}",729.878,#FFFFFF,hexagonal,"{23,36}",8.9658e-08
Belovite-(La),NaLaSr3(PO4)3F,"{""Na"": 1.0, ""La"": 1.0, ""Sr"": 3.0, ""P"": 3.0, ""O"": 12.0, ""F"": 1.0}",728.668,#FFFFFF,hexagonal,"{23,36}",8.9658e-08
Bementite,Mn7Si6O15(OH)8,"{""Mn"": 7.0, ""Si"": 6.0, ""O"": 23.0, ""H"": 8.0}",929.117,#FFFFFF,monoclinic,"{23,32}",8.9153e-08
Benauite,SrFe3+3(PO4)(PO3OH)(OH)6,"{""Sr"": 1.0, ""Fe"": 3.0, ""P"": 2.0, ""O"": 14.0, ""H"": 7.0}",548.145,#556B2F,hexagonal,"{23,32,47}",1.93322e-07
Benavidesite,Pb4MnSb6S14,"{""Pb"": 4.0, ""Mn"": 1.0, ""Sb"": 6.0, ""S"": 14.0}",2063.138,#708090,monoclinic,{33},2.51e-10
Bendadaite,Fe2+Fe3+2(AsO4)2(OH)2·4H2O,"{""Fe"": 3.0, ""As"": 2.0, ""O"": 14.0, ""H"": 10.0}",551.445,#556B2F,monoclinic,{47},1.5015e-07