name,formula,elements,density,color,crystal_system,dna
Metanatroautunite,Na(UO2)(PO4)·3H2O,"{""Na"": 1.0, ""U"": 1.0, ""O"": 9.0, ""P"": 1.0, ""H"": 6.0}",442.04,#FFFFFF,tetragonal,"{""system"": ""tetragonal"", ""scale"": [1.0, 1.0, 1.4], ""optical"": {""transparent"": 1, ""refraction"": 1.5, ""birefringence"": 0.01}}"
Metanovacekite,Mg(UO2)2(AsO4)2·8H2O,"{""Mg"": 1.0, ""U"": 2.0, ""O"": 20.0, ""As"": 2.0, ""H"": 16.0}",986.34,#FFFFFF,tetragonal,"{""system"": ""tetragonal"", ""scale"": [1.0, 1.0, 1.4], ""optical"": {""transparent"": 1, ""refraction"": 1.5, ""birefringence"": 0.01}}"
Metarauchite,Ni(UO2)2(AsO4)2·8H2O,"{""Ni"": 1.0, ""U"": 2.0, ""O"": 20.0, ""As"": 2.0, ""H"": 16.0}",1020.72,#FFFFFF,triclinic,"{""system"": ""triclinic"", ""scale"": [0.7, 1.0, 1.3], ""optical"": {""transparent"": 1, ""refraction"": 1.5, ""birefringence"": 0.01}}"
Metarossite,CaV5+2O6·2H2O,"{""Ca"": 1.0, ""V"": 2.0, ""O"": 8.0, ""H"": 4.0}",273.99,#FFFFFF,triclinic,"{""system"": ""triclinic"", ""scale"": [0.7, 1.0, 1.3], ""optical"": {""transparent"": 1, ""refraction"": 1.5, ""birefringence"": 0.01}}"
Metasaleeite,Mg(UO2)2(PO4)2·8H2O,"{""Mg"": 1.0, ""U"": 2.0, ""O"": 20.0, ""P"": 2.0, ""H"": 16.0}",898.44,#FFFFFF,,"{""system"": """", ""scale"": [1.0, 1.0, 1.0], ""optical"": {""transparent"": 1, ""refraction"": 1.5, ""birefringence"": 0.01}}"
Metaschoderite,Al2(PO4)(VO4)·6H2O,"{""Al"": 2.0, ""P"": 1.0, ""O"": 14.0, ""V"": 1.0, ""H"": 12.0}",371.97,#FFFFFF,monoclinic,"{""system"": ""monoclinic"", ""scale"": [0.7, 1.0, 1.3], ""optical"": {""transparent"": 1, ""refraction"": 1.5, ""birefringence"": 0.01}}"
Metaschoepite,(UO2)8O2(OH)12·10H2O,"{""U"": 8.0, ""O"": 40.0, ""H"": 32.0}",2576.5,#ADFF2F,orthorhombic,"{""system"": ""orthorhombic"", ""scale"": [0.8, 1.0, 1.2], ""optical"": {""transparent"": 0, ""refraction"": 0.0, ""birefringence"": 0.0}}"
Metasideronatrite,Na2Fe3+(SO4)2(OH)·H2O,"{""Na"": 2.0, ""Fe"": 1.0, ""S"": 2.0, ""O"": 10.0, ""H"": 3.0}",328.97,#556B2F,orthorhombic,"{""system"": ""orthorhombic"", ""scale"": [0.8, 1.0, 1.2], ""optical"": {""transparent"": 0, ""refraction"": 0.0, ""birefringence"": 0.0}}"
Metastibnite,Sb2S3,"{""Sb"": 2.0, ""S"": 3.0}",339.7,#A9A9A9,,"{""system"": """", ""scale"": [1.0, 1.0, 1.0], ""optical"": {""transparent"": 0, ""refraction"": 0.0, ""birefringence"": 0.0}}"
Metastudtite,UO4·2H2O,"{""U"": 1.0, ""O"": 6.0, ""H"": 4.0}",338.06,#ADFF2F,orthorhombic,"{""system"": ""orthorhombic"", ""scale"": [0.8, 1.0, 1.2], ""optical"": {""transparent"": 0, ""refraction"": 0.0, ""birefringence"": 0.0}}"
Metatamboite,Fe3+3(OH)(H2O)2(SO4)(Te4+O3)3[Te4+O(OH)2](H2O),"{""Fe"": 3.0, ""O"": 20.0, ""H"": 9.0, ""S"": 1.0, ""Te"": 4.0}",1039.08,#556B2F,monoclinic,"{""system"": ""monoclinic"", ""scale"": [0.7, 1.0, 1.3], ""optical"": {""transparent"": 0, ""refraction"": 0.0, ""birefringence"": 0.0}}"
Metathenardite,Na2(SO4),"{""Na"": 2.0, ""S"": 1.0, ""O"": 4.0}",142.04,#FFFF00,hexagonal,"{""system"": ""hexagonal"", ""scale"": [1.0, 1.0, 1.6], ""optical"": {""transparent"": 0, ""refraction"": 0.0, ""birefringence"": 0.0}}"
Metatorbernite,Cu(UO2)2(PO4)2·8H2O,"{""Cu"": 1.0, ""U"": 2.0, ""O"": 20.0, ""P"": 2.0, ""H"": 16.0}",937.68,#FFFFFF,monoclinic,"{""system"": ""monoclinic"", ""scale"": [0.7, 1.0, 1.3], ""optical"": {""transparent"": 1, ""refraction"": 1.5, ""birefringence"": 0.01}}"
Metatyuyamunite,Ca(UO2)2(VO4)2·3H2O,"{""Ca"": 1.0, ""U"": 2.0, ""O"": 15.0, ""V"": 2.0, ""H"": 6.0}",864.07,#FFFFFF,orthorhombic,"{""system"": ""orthorhombic"", ""scale"": [0.8, 1.0, 1.2], ""optical"": {""transparent"": 1, ""refraction"": 1.5, ""birefringence"": 0.01}}"
Metauramphite,(NH4)2(UO2)2(PO4)2·6H2O,"{""N"": 2.0, ""H"": 20.0, ""U"": 2.0, ""O"": 18.0, ""P"": 2.0}",874.18,#FFFFFF,,"{""system"": """", ""scale"": [1.0, 1.0, 1.0], ""optical"": {""transparent"": 1, ""refraction"": 1.5, ""birefringence"": 0.01}}"
Metauranocircite,Ba(UO2)2(PO4)2·6H2O,"{""Ba"": 1.0, ""U"": 2.0, ""O"": 18.0, ""P"": 2.0, ""H"": 12.0}",975.43,#FFFFFF,monoclinic,"{""system"": ""monoclinic"", ""scale"": [0.7, 1.0, 1.3], ""optical"": {""transparent"": 1, ""refraction"": 1.5, ""birefringence"": 0.01}}"
Metauranopilite,(UO2)6(SO4)(OH)10·5H2O,"{""U"": 6.0, ""O"": 31.0, ""S"": 1.0, ""H"": 20.0}",1976.4,#FFFFFF,,"{""system"": """", ""scale"": [1.0, 1.0, 1.0], ""optical"": {""transparent"": 1, ""refraction"": 1.5, ""birefringence"": 0.01}}"
Metauranospinite,Ca(UO2)2(AsO4)2·8H2O,"{""Ca"": 1.0, ""U"": 2.0, ""O"": 20.0, ""As"": 2.0, ""H"": 16.0}",1002.11,#FFFFFF,,"{""system"": """", ""scale"": [1.0, 1.0, 1.0], ""optical"": {""transparent"": 1, ""refraction"": 1.5, ""birefringence"": 0.01}}"
Metauroxite,(UO2)2(C2O4)(OH)2(H2O)2,"{""U"": 2.0, ""O"": 12.0, ""C"": 2.0, ""H"": 6.0}",698.13,#FFFFFF,triclinic,"{""system"": ""triclinic"", ""scale"": [0.7, 1.0, 1.3], ""optical"": {""transparent"": 1, ""refraction"": 1.5, ""birefringence"": 0.01}}"
Metavanmeersscheite,U(UO2)3(PO4)2(OH)6·2H2O,"{""U"": 4.0, ""O"": 22.0, ""P"": 2.0, ""H"": 10.0}",1376.14,#FFFFFF,orthorhombic,"{""system"": ""orthorhombic"", ""scale"": [0.8, 1.0, 1.2], ""optical"": {""transparent"": 1, ""refraction"": 1.5, ""birefringence"": 0.01}}"
Metavanuralite,Al(UO2)2(VO4)2(OH)·8H2O,"{""Al"": 1.0, ""U"": 2.0, ""O"": 21.0, ""V"": 2.0, ""H"": 17.0}",958.06,#FFFFFF,triclinic,"{""system"": ""triclinic"", ""scale"": [0.7, 1.0, 1.3], ""optical"": {""transparent"": 1, ""refraction"": 1.5, ""birefringence"": 0.01}}"
Metavariscite,Al(PO4)·2H2O,"{""Al"": 1.0, ""P"": 1.0, ""O"": 6.0, ""H"": 4.0}",157.98,#FFFFFF,monoclinic,"{""system"": ""monoclinic"", ""scale"": [0.7, 1.0, 1.3], ""optical"": {""transparent"": 1, ""refraction"": 1.5, ""birefringence"": 0.01}}"
Metavauxite,Fe2+Al2(PO4)2(OH)2·8H2O,"{""Fe"": 1.0, ""Al"": 2.0, ""P"": 2.0, ""O"": 18.0, ""H"": 18.0}",477.89,#556B2F,monoclinic,"{""system"": ""monoclinic"", ""scale"": [0.7, 1.0, 1.3], ""optical"": {""transparent"": 0, ""refraction"": 0.0, ""birefringence"": 0.0}}"
Metavivianite,Fe2+Fe3+2(PO4)2(OH)2·6H2O,"{""Fe"": 3.0, ""P"": 2.0, ""O"": 16.0, ""H"": 14.0}",499.6,#556B2F,triclinic,"{""system"": ""triclinic"", ""scale"": [0.7, 1.0, 1.3], ""optical"": {""transparent"": 0, ""refraction"": 0.0, ""birefringence"": 0.0}}"
Metavoltine,K2Na6Fe2+Fe3+6O2(SO4)12·18H2O,"{""K"": 2.0, ""Na"": 6.0, ""Fe"": 7.0, ""O"": 68.0, ""S"": 12.0, ""H"": 36.0}",2116.1,#556B2F,hexagonal,"{""system"": ""hexagonal"", ""scale"": [1.0, 1.0, 1.6], ""optical"": {""transparent"": 0, ""refraction"": 0.0, ""birefringence"": 0.0}}"
Metazellerite,Ca(UO2)(CO3)2·3H2O,"{""Ca"": 1.0, ""U"": 1.0, ""O"": 11.0, ""C"": 2.0, ""H"": 6.0}",484.18,#FFFFFF,orthorhombic,"{""system"": ""orthorhombic"", ""scale"": [0.8, 1.0, 1.2], ""optical"": {""transparent"": 1, ""refraction"": 1.5, ""birefringence"": 0.01}}"
Metazeunerite,Cu(UO2)2(AsO4)2·8H2O,"{""Cu"": 1.0, ""U"": 2.0, ""O"": 20.0, ""As"": 2.0, ""H"": 16.0}",1025.58,#FFFFFF,tetragonal,"{""system"": ""tetragonal"", ""scale"": [1.0, 1.0, 1.4], ""optical"": {""transparent"": 1, ""refraction"": 1.5, ""birefringence"": 0.01}}"
Meyerhofferite,CaB3O3(OH)5·H2O,"{""Ca"": 1.0, ""B"": 3.0, ""O"": 9.0, ""H"": 7.0}",223.57,#FFFFFF,triclinic,"{""system"": ""triclinic"", ""scale"": [0.7, 1.0, 1.3], ""optical"": {""transparent"": 1, ""refraction"": 1.5, ""birefringence"": 0.01}}"
Meymacite,WO3·2H2O,"{""W"": 1.0, ""O"": 5.0, ""H"": 4.0}",267.87,#FFFFFF,,"{""system"": """", ""scale"": [1.0, 1.0, 1.0], ""optical"": {""transparent"": 1, ""refraction"": 1.5, ""birefringence"": 0.01}}"
Meyrowitzite,Ca(UO2)(CO3)2·5H2O,"{""Ca"": 1.0, ""U"": 1.0, ""O"": 13.0, ""C"": 2.0, ""H"": 10.0}",520.21,#FFFFFF,monoclinic,"{""system"": ""monoclinic"", ""scale"": [0.7, 1.0, 1.3], ""optical"": {""transparent"": 1, ""refraction"": 1.5, ""birefringence"": 0.01}}"
Mgriite,Cu3AsSe3,"{""Cu"": 3.0, ""As"": 1.0, ""Se"": 3.0}",502.45,#00BFFF,cubic,"{""system"": ""cubic"", ""scale"": [1.0, 1.0, 1.0], ""optical"": {""transparent"": 0, ""refraction"": 0.0, ""birefringence"": 0.0}}"
Miargyrite,AgSbS2,"{""Ag"": 1.0, ""Sb"": 1.0, ""S"": 2.0}",293.75,#A9A9A9,monoclinic,"{""system"": ""monoclinic"", ""scale"": [0.7, 1.0, 1.3], ""optical"": {""transparent"": 0, ""refraction"": 0.0, ""birefringence"": 0.0}}"
Miassite,Rh17S15,"{""Rh"": 17.0, ""S"": 15.0}",2230.37,#A9A9A9,cubic,"{""system"": ""cubic"", ""scale"": [1.0, 1.0, 1.0], ""optical"": {""transparent"": 0, ""refraction"": 0.0, ""birefringence"": 0.0}}"
Michenerite,PdBiTe,"{""Pd"": 1.0, ""Bi"": 1.0, ""Te"": 1.0}",443.0,#D2B48C,cubic,"{""system"": ""cubic"", ""scale"": [1.0, 1.0, 1.0], ""optical"": {""transparent"": 0, ""refraction"": 0.0, ""birefringence"": 0.0}}"
Microcline,K(AlSi3O8),"{""K"": 1.0, ""Al"": 1.0, ""Si"": 3.0, ""O"": 8.0}",278.35,#FFFFFF,triclinic,"{""system"": ""triclinic"", ""scale"": [0.7, 1.0, 1.3], ""optical"": {""transparent"": 1, ""refraction"": 1.5, ""birefringence"": 0.01}}"
Midbarite,Ca3Mg2(V2Si)O12,"{""Ca"": 3.0, ""Mg"": 2.0, ""V"": 2.0, ""Si"": 1.0, ""O"": 12.0}",490.83,#FFFFFF,cubic,"{""system"": ""cubic"", ""scale"": [1.0, 1.0, 1.0], ""optical"": {""transparent"": 1, ""refraction"": 1.5, ""birefringence"": 0.0}}"
Middlebackite,Cu2C2O4(OH)2,"{""Cu"": 2.0, ""C"": 2.0, ""O"": 6.0, ""H"": 2.0}",249.14,#FFFFFF,monoclinic,"{""system"": ""monoclinic"", ""scale"": [0.7, 1.0, 1.3], ""optical"": {""transparent"": 1, ""refraction"": 1.5, ""birefringence"": 0.01}}"
Miersite,AgI,"{""Ag"": 1.0, ""I"": 1.0}",234.77,#C0C0C0,cubic,"{""system"": ""cubic"", ""scale"": [1.0, 1.0, 1.0], ""optical"": {""transparent"": 0, ""refraction"": 0.0, ""birefringence"": 0.0}}"
Miessiite,Pd11Te2Se2,"{""Pd"": 11.0, ""Te"": 2.0, ""Se"": 2.0}",1583.74,#FFFFFF,cubic,"{""system"": ""cubic"", ""scale"": [1.0, 1.0, 1.0], ""optical"": {""transparent"": 1, ""refraction"": 1.5, ""birefringence"": 0.0}}"
Miharaite,PbCu4FeBiS6,"{""Pb"": 1.0, ""Cu"": 4.0, ""Fe"": 1.0, ""Bi"": 1.0, ""S"": 6.0}",918.59,#DAA520,orthorhombic,"{""system"": ""orthorhombic"", ""scale"": [0.8, 1.0, 1.2], ""optical"": {""transparent"": 0, ""refraction"": 0.0, ""birefringence"": 0.0}}"
Mikasaite,Fe3+2(SO4)3,"{""Fe"": 2.0, ""S"": 3.0, ""O"": 12.0}",399.88,#8B4513,hexagonal,"{""system"": ""hexagonal"", ""scale"": [1.0, 1.0, 1.6], ""optical"": {""transparent"": 0, ""refraction"": 0.0, ""birefringence"": 0.0}}"
Mikecoxite,[CHg4]OCl2,"{""C"": 1.0, ""Hg"": 4.0, ""O"": 1.0, ""Cl"": 2.0}",901.27,#FFFFFF,monoclinic,"{""system"": ""monoclinic"", ""scale"": [0.7, 1.0, 1.3], ""optical"": {""transparent"": 1, ""refraction"": 1.5, ""birefringence"": 0.01}}"
Mikehowardite,Fe3+4(V5+O4)4(H2O)2·H2O,"{""Fe"": 4.0, ""V"": 4.0, ""O"": 19.0, ""H"": 6.0}",737.21,#556B2F,triclinic,"{""system"": ""triclinic"", ""scale"": [0.7, 1.0, 1.3], ""optical"": {""transparent"": 0, ""refraction"": 0.0, ""birefringence"": 0.0}}"
Milarite,KCa2(Be2AlSi12)O30·H2O,"{""K"": 1.0, ""Ca"": 2.0, ""Be"": 2.0, ""Al"": 1.0, ""Si"": 12.0, ""O"": 31.0, ""H"": 2.0}",999.36,#FFFFFF,hexagonal,"{""system"": ""hexagonal"", ""scale"": [1.0, 1.0, 1.6], ""optical"": {""transparent"": 1, ""refraction"": 1.5, ""birefringence"": 0.01}}"
Milkovoite,Cu4O(PO4)(AsO4),"{""Cu"": 4.0, ""O"": 9.0, ""P"": 1.0, ""As"": 1.0}",504.09,#FFFFFF,orthorhombic,"{""system"": ""orthorhombic"", ""scale"": [0.8, 1.0, 1.2], ""optical"": {""transparent"": 1, ""refraction"": 1.5, ""birefringence"": 0.01}}"
Millerite,NiS,"{""Ni"": 1.0, ""S"": 1.0}",90.75,#A9A9A9,hexagonal,"{""system"": ""hexagonal"", ""scale"": [1.0, 1.0, 1.6], ""optical"": {""transparent"": 0, ""refraction"": 0.0, ""birefringence"": 0.0}}"
Millisite,NaCaAl6(PO4)4(OH)9·3H2O,"{""Na"": 1.0, ""Ca"": 1.0, ""Al"": 6.0, ""P"": 4.0, ""O"": 28.0, ""H"": 15.0}",811.95,#FFFFFF,,"{""system"": """", ""scale"": [1.0, 1.0, 1.0], ""optical"": {""transparent"": 1, ""refraction"": 1.5, ""birefringence"": 0.01}}"
Millosevichite,Al2(SO4)3,"{""Al"": 2.0, ""S"": 3.0, ""O"": 12.0}",342.14,#FFFF00,hexagonal,"{""system"": ""hexagonal"", ""scale"": [1.0, 1.0, 1.6], ""optical"": {""transparent"": 0, ""refraction"": 0.0, ""birefringence"": 0.0}}"
Millsite,CuTeO3·2H2O,"{""Cu"": 1.0, ""Te"": 1.0, ""O"": 5.0, ""H"": 4.0}",275.18,#FFFFFF,monoclinic,"{""system"": ""monoclinic"", ""scale"": [0.7, 1.0, 1.3], ""optical"": {""transparent"": 1, ""refraction"": 1.5, ""birefringence"": 0.01}}"
Milotaite,PdSbSe,"{""Pd"": 1.0, ""Sb"": 1.0, ""Se"": 1.0}",307.14,#A9A9A9,cubic,"{""system"": ""cubic"", ""scale"": [1.0, 1.0, 1.0], ""optical"": {""transparent"": 0, ""refraction"": 0.0, ""birefringence"": 0.0}}"
Mimetite,Pb5(AsO4)3Cl,"{""Pb"": 5.0, ""As"": 3.0, ""O"": 12.0, ""Cl"": 1.0}",1488.21,#FFFFFF,monoclinic,"{""system"": ""monoclinic"", ""scale"": [0.7, 1.0, 1.3], ""optical"": {""transparent"": 1, ""refraction"": 1.5, ""birefringence"": 0.01}}"
Minakawaite,RhSb,"{""Rh"": 1.0, ""Sb"": 1.0}",224.67,#A9A9A9,orthorhombic,"{""system"": ""orthorhombic"", ""scale"": [0.8, 1.0, 1.2], ""optical"": {""transparent"": 0, ""refraction"": 0.0, ""birefringence"": 0.0}}"
Minasragrite,V4+O(SO4)·5H2O,"{""V"": 1.0, ""O"": 10.0, ""S"": 1.0, ""H"": 10.0}",253.08,#FFFFFF,monoclinic,"{""system"": ""monoclinic"", ""scale"": [0.7, 1.0, 1.3], ""optical"": {""transparent"": 1, ""refraction"": 1.5, ""birefringence"": 0.01}}"
Mineevite-(Y),Na25BaY2(CO3)11(HCO3)4(SO4)2F2Cl,"{""Na"": 25.0, ""Ba"": 1.0, ""Y"": 2.0, ""C"": 15.0, ""O"": 53.0, ""H"": 4.0, ""S"": 2.0, ""F"": 2.0, ""Cl"": 1.0}",2059.65,#FFFFFF,hexagonal,"{""system"": ""hexagonal"", ""scale"": [1.0, 1.0, 1.6], ""optical"": {""transparent"": 1, ""refraction"": 1.5, ""birefringence"": 0.01}}"
Minguzzite,K3Fe3+(C2O4)3·3H2O,"{""K"": 3.0, ""Fe"": 1.0, ""C"": 6.0, ""O"": 15.0, ""H"": 6.0}",491.26,#556B2F,monoclinic,"{""system"": ""monoclinic"", ""scale"": [0.7, 1.0, 1.3], ""optical"": {""transparent"": 0, ""refraction"": 0.0, ""birefringence"": 0.0}}"
Minium,Pb2+2Pb4+O4,"{""Pb"": 3.0, ""O"": 4.0}",685.6,#FFFFFF,orthorhombic,"{""system"": ""orthorhombic"", ""scale"": [0.8, 1.0, 1.2], ""optical"": {""transparent"": 1, ""refraction"": 1.5, ""birefringence"": 0.01}}"
Minjiangite,BaBe2(PO4)2,"{""Ba"": 1.0, ""Be"": 2.0, ""P"": 2.0, ""O"": 8.0}",345.29,#FFFFFF,hexagonal,"{""system"": ""hexagonal"", ""scale"": [1.0, 1.0, 1.6], ""optical"": {""transparent"": 1, ""refraction"": 1.5, ""birefringence"": 0.01}}"
Minnesotaite,Fe2+3Si4O10(OH)2,"{""Fe"": 3.0, ""Si"": 4.0, ""O"": 12.0, ""H"": 2.0}",473.93,#556B2F,triclinic,"{""system"": ""triclinic"", ""scale"": [0.7, 1.0, 1.3], ""optical"": {""transparent"": 0, ""refraction"": 0.0, ""birefringence"": 0.0}}"
Minyulite,KAl2(PO4)2F·4H2O,"{""K"": 1.0, ""Al"": 2.0, ""P"": 2.0, ""O"": 12.0, ""F"": 1.0, ""H"": 8.0}",374.06,#FFFFFF,orthorhombic,"{""system"": ""orthorhombic"", ""scale"": [0.8, 1.0, 1.2], ""optical"": {""transparent"": 1, ""refraction"": 1.5, ""birefringence"": 0.01}}"
Mirabilite,Na2(SO4)·10H2O,"{""Na"": 2.0, ""S"": 1.0, ""O"": 14.0, ""H"": 20.0}",322.2,#FFFFFF,monoclinic,"{""system"": ""monoclinic"", ""scale"": [0.7, 1.0, 1.3], ""optical"": {""transparent"": 1, ""refraction"": 1.5, ""birefringence"": 0.01}}"
Mirnyite,SrZr4+(Ti4+12Cr3+6)Mg2O38,"{""Sr"": 1.0, ""Zr"": 1.0, ""Ti"": 12.0, ""Cr"": 6.0, ""Mg"": 2.0, ""O"": 38.0}",1721.9,#FFFFFF,hexagonal,"{""system"": ""hexagonal"", ""scale"": [1.0, 1.0, 1.6], ""optical"": {""transparent"": 1, ""refraction"": 1.5, ""birefringence"": 0.01}}"
Misenite,K8(SO4)(SO3OH)6,"{""K"": 8.0, ""S"": 7.0, ""O"": 28.0, ""H"": 6.0}",991.27,#FFFFFF,,"{""system"": """", ""scale"": [1.0, 1.0, 1.0], ""optical"": {""transparent"": 1, ""refraction"": 1.5, ""birefringence"": 0.01}}"
Mitridatite,Ca2Fe3+3O2(PO4)3·3H2O,"{""Ca"": 2.0, ""Fe"": 3.0, ""O"": 17.0, ""P"": 3.0, ""H"": 6.0}",618.67,#556B2F,monoclinic,"{""system"": ""monoclinic"", ""scale"": [0.7, 1.0, 1.3], ""optical"": {""transparent"": 0, ""refraction"": 0.0, ""birefringence"": 0.0}}"
Mitrofanovite,Pt3Te4,"{""Pt"": 3.0, ""Te"": 4.0}",1095.64,#FFFFFF,hexagonal,"{""system"": ""hexagonal"", ""scale"": [1.0, 1.0, 1.6], ""optical"": {""transparent"": 1, ""refraction"": 1.5, ""birefringence"": 0.01}}"
Mitscherlichite,K2CuCl4·2H2O,"{""K"": 2.0, ""Cu"": 1.0, ""Cl"": 4.0, ""H"": 4.0, ""O"": 2.0}",319.58,#FFFFFF,tetragonal,"{""system"": ""tetragonal"", ""scale"": [1.0, 1.0, 1.4], ""optical"": {""transparent"": 1, ""refraction"": 1.5, ""birefringence"": 0.01}}"
Mixite,Cu6Bi(AsO4)3(OH)6·3H2O,"{""Cu"": 6.0, ""Bi"": 1.0, ""As"": 3.0, ""O"": 21.0, ""H"": 12.0}",1163.14,#FFFFFF,hexagonal,"{""system"": ""hexagonal"", ""scale"": [1.0, 1.0, 1.6], ""optical"": {""transparent"": 1, ""refraction"": 1.5, ""birefringence"": 0.01}}"
Mizraite-(Ce),Ce(Al11Mg)O19,"{""Ce"": 1.0, ""Al"": 11.0, ""Mg"": 1.0, ""O"": 19.0}",765.21,#FFFFFF,hexagonal,"{""system"": ""hexagonal"", ""scale"": [1.0, 1.0, 1.6], ""optical"": {""transparent"": 1, ""refraction"": 1.5, ""birefringence"": 0.01}}"
Moabite,NiFe3+(PO4)O,"{""Ni"": 1.0, ""Fe"": 1.0, ""P"": 1.0, ""O"": 5.0}",225.51,#556B2F,orthorhombic,"{""system"": ""orthorhombic"", ""scale"": [0.8, 1.0, 1.2], ""optical"": {""transparent"": 0, ""refraction"": 0.0, ""birefringence"": 0.0}}"
Moctezumite,Pb(UO2)(Te4+O3)2,"{""Pb"": 1.0, ""U"": 1.0, ""O"": 8.0, ""Te"": 2.0}",828.43,#FFFFFF,monoclinic,"{""system"": ""monoclinic"", ""scale"": [0.7, 1.0, 1.3], ""optical"": {""transparent"": 1, ""refraction"": 1.5, ""birefringence"": 0.01}}"
Modderite,CoAs,"{""Co"": 1.0, ""As"": 1.0}",133.85,#4169E1,orthorhombic,"{""system"": ""orthorhombic"", ""scale"": [0.8, 1.0, 1.2], ""optical"": {""transparent"": 0, ""refraction"": 0.0, ""birefringence"": 0.0}}"
Moeloite,Pb6Sb6S14(S)3,"{""Pb"": 6.0, ""Sb"": 6.0, ""S"": 17.0}",2518.78,#708090,orthorhombic,"{""system"": ""orthorhombic"", ""scale"": [0.8, 1.0, 1.2], ""optical"": {""transparent"": 0, ""refraction"": 0.0, ""birefringence"": 0.0}}"
Mohnite,(NH4)K2Na(SO4)2,"{""N"": 1.0, ""H"": 4.0, ""K"": 2.0, ""Na"": 1.0, ""S"": 2.0, ""O"": 8.0}",311.35,#FFFFFF,hexagonal,"{""system"": ""hexagonal"", ""scale"": [1.0, 1.0, 1.6], ""optical"": {""transparent"": 1, ""refraction"": 1.5, ""birefringence"": 0.01}}"
Mohrite,(NH4)2Fe2+(SO4)2·6H2O,"{""N"": 2.0, ""H"": 20.0, ""Fe"": 1.0, ""S"": 2.0, ""O"": 14.0}",392.15,#556B2F,monoclinic,"{""system"": ""monoclinic"", ""scale"": [0.7, 1.0, 1.3], ""optical"": {""transparent"": 0, ""refraction"": 0.0, ""birefringence"": 0.0}}"
Moiraite,Pb12Sb8As8S36,"{""Pb"": 12.0, ""Sb"": 8.0, ""As"": 8.0, ""S"": 36.0}",5214.0,#708090,triclinic,"{""system"": ""triclinic"", ""scale"": [0.7, 1.0, 1.3], ""optical"": {""transparent"": 0, ""refraction"": 0.0, ""birefringence"": 0.0}}"
Moissanite,SiC,"{""Si"": 1.0, ""C"": 1.0}",40.1,#FFFFFF,cubic,"{""system"": ""cubic"", ""scale"": [1.0, 1.0, 1.0], ""optical"": {""transparent"": 1, ""refraction"": 1.5, ""birefringence"": 0.0}}"
Mojaveite,Cu6[Te6+O4(OH)2](OH)7Cl,"{""Cu"": 6.0, ""Te"": 1.0, ""O"": 13.0, ""H"": 9.0, ""Cl"": 1.0}",761.42,#FFFFFF,hexagonal,"{""system"": ""hexagonal"", ""scale"": [1.0, 1.0, 1.6], ""optical"": {""transparent"": 1, ""refraction"": 1.5, ""birefringence"": 0.01}}"
Molinelloite,Cu(H2O)(OH)V4+O(V5+O4),"{""Cu"": 1.0, ""H"": 3.0, ""O"": 7.0, ""V"": 2.0}",280.45,#FFFFFF,triclinic,"{""system"": ""triclinic"", ""scale"": [0.7, 1.0, 1.3], ""optical"": {""transparent"": 1, ""refraction"": 1.5, ""birefringence"": 0.01}}"
Moluranite,H4U4+(UO2)3(MoO4)7·18H2O,"{""H"": 40.0, ""U"": 4.0, ""O"": 52.0, ""Mo"": 7.0}",2496.09,#FFFFFF,,"{""system"": """", ""scale"": [1.0, 1.0, 1.0], ""optical"": {""transparent"": 1, ""refraction"": 1.5, ""birefringence"": 0.01}}"
Molybdenite,MoS2,"{""Mo"": 1.0, ""S"": 2.0}",160.07,#A9A9A9,hexagonal,"{""system"": ""hexagonal"", ""scale"": [1.0, 1.0, 1.6], ""optical"": {""transparent"": 0, ""refraction"": 0.0, ""birefringence"": 0.0}}"
Molybdite,MoO3,"{""Mo"": 1.0, ""O"": 3.0}",143.95,#FFFFFF,orthorhombic,"{""system"": ""orthorhombic"", ""scale"": [0.8, 1.0, 1.2], ""optical"": {""transparent"": 1, ""refraction"": 1.5, ""birefringence"": 0.01}}"