name,formula,elements,density,color,crystal_system,dna
Abellaite,NaPb2(CO3)2(OH),"{""Na"": 1.0, ""Pb"": 2.0, ""C"": 2.0, ""O"": 7.0, ""H"": 1.0}",574.42,#FFFFFF,hexagonal,"{""system"": ""hexagonal"", ""scale"": [1.0, 1.0, 1.6], ""optical"": {""transparent"": 1, ""refraction"": 1.5, ""birefringence"": 0.01}}"
Abelsonite,NiC31H32N4,"{""Ni"": 1.0, ""C"": 31.0, ""H"": 32.0, ""N"": 4.0}",519.3,#FFFFFF,triclinic,"{""system"": ""triclinic"", ""scale"": [0.7, 1.0, 1.3], ""optical"": {""transparent"": 1, ""refraction"": 1.5, ""birefringence"": 0.01}}"
Abenakiite-(Ce),Na26Ce6(Si6O18)(PO4)6(CO3)6(SO2)O,"{""Na"": 26.0, ""Ce"": 6.0, ""Si"": 6.0, ""O"": 63.0, ""P"": 6.0, ""C"": 6.0, ""S"": 1.0}",2904.94,#FFFFFF,hexagonal,"{""system"": ""hexagonal"", ""scale"": [1.0, 1.0, 1.6], ""optical"": {""transparent"": 1, ""refraction"": 1.5, ""birefringence"": 0.01}}"
Abernathyite,K(UO2)(AsO4)·3H2O,"{""K"": 1.0, ""U"": 1.0, ""O"": 9.0, ""As"": 1.0, ""H"": 6.0}",502.1,#FFFFFF,tetragonal,"{""system"": ""tetragonal"", ""scale"": [1.0, 1.0, 1.4], ""optical"": {""transparent"": 1, ""refraction"": 1.5, ""birefringence"": 0.01}}"
Abuite,CaAl2(PO4)2F2,"{""Ca"": 1.0, ""Al"": 2.0, ""P"": 2.0, ""O"": 8.0, ""F"": 2.0}",321.98,#FFFFFF,orthorhombic,"{""system"": ""orthorhombic"", ""scale"": [0.8, 1.0, 1.2], ""optical"": {""transparent"": 1, ""refraction"": 1.5, ""birefringence"": 0.01}}"
Acanthite,Ag2S,"{""Ag"": 2.0, ""S"": 1.0}",247.8,#A9A9A9,monoclinic,"{""system"": ""monoclinic"", ""scale"": [0.7, 1.0, 1.3], ""optical"": {""transparent"": 0, ""refraction"": 0.0, ""birefringence"": 0.0}}"
Acetamide,CH3CONH2,"{""C"": 2.0, ""H"": 5.0, ""O"": 1.0, ""N"": 1.0}",59.07,#FFFFFF,hexagonal,"{""system"": ""hexagonal"", ""scale"": [1.0, 1.0, 1.6], ""optical"": {""transparent"": 1, ""refraction"": 1.5, ""birefringence"": 0.01}}"
Achalaite,Fe2+TiNb2O8,"{""Fe"": 1.0, ""Ti"": 1.0, ""Nb"": 2.0, ""O"": 8.0}",417.54,#556B2F,monoclinic,"{""system"": ""monoclinic"", ""scale"": [0.7, 1.0, 1.3], ""optical"": {""transparent"": 0, ""refraction"": 0.0, ""birefringence"": 0.0}}"
Achavalite,FeSe,"{""Fe"": 1.0, ""Se"": 1.0}",134.81,#8B4513,hexagonal,"{""system"": ""hexagonal"", ""scale"": [1.0, 1.0, 1.6], ""optical"": {""transparent"": 0, ""refraction"": 0.0, ""birefringence"": 0.0}}"
Acuminite,SrAlF4(OH)·H2O,"{""Sr"": 1.0, ""Al"": 1.0, ""F"": 4.0, ""O"": 2.0, ""H"": 3.0}",225.62,#FFFFFF,monoclinic,"{""system"": ""monoclinic"", ""scale"": [0.7, 1.0, 1.3], ""optical"": {""transparent"": 1, ""refraction"": 1.5, ""birefringence"": 0.01}}"
Adachiite,CaFe2+3Al6(Si5AlO18)(BO3)3(OH)3(OH),"{""Ca"": 1.0, ""Fe"": 3.0, ""Al"": 7.0, ""Si"": 5.0, ""O"": 31.0, ""B"": 3.0, ""H"": 4.0}",1069.4,#556B2F,hexagonal,"{""system"": ""hexagonal"", ""scale"": [1.0, 1.0, 1.6], ""optical"": {""transparent"": 0, ""refraction"": 0.0, ""birefringence"": 0.0}}"
Adamsite-(Y),NaY(CO3)2·6H2O,"{""Na"": 1.0, ""Y"": 1.0, ""C"": 2.0, ""O"": 12.0, ""H"": 12.0}",340.02,#FFFFFF,triclinic,"{""system"": ""triclinic"", ""scale"": [0.7, 1.0, 1.3], ""optical"": {""transparent"": 1, ""refraction"": 1.5, ""birefringence"": 0.01}}"
Adanite,Pb2(Te4+O3)(SO4),"{""Pb"": 2.0, ""Te"": 1.0, ""O"": 7.0, ""S"": 1.0}",686.06,#FFFFFF,monoclinic,"{""system"": ""monoclinic"", ""scale"": [0.7, 1.0, 1.3], ""optical"": {""transparent"": 1, ""refraction"": 1.5, ""birefringence"": 0.01}}"
Addibischoffite,Ca2Al6Al6O20,"{""Ca"": 2.0, ""Al"": 12.0, ""O"": 20.0}",723.92,#FFFFFF,triclinic,"{""system"": ""triclinic"", ""scale"": [0.7, 1.0, 1.3], ""optical"": {""transparent"": 1, ""refraction"": 1.5, ""birefringence"": 0.01}}"
Adelite,CaMg(AsO4)(OH),"{""Ca"": 1.0, ""Mg"": 1.0, ""As"": 1.0, ""O"": 5.0, ""H"": 1.0}",220.32,#FFFFFF,orthorhombic,"{""system"": ""orthorhombic"", ""scale"": [0.8, 1.0, 1.2], ""optical"": {""transparent"": 1, ""refraction"": 1.5, ""birefringence"": 0.01}}"
Admontite,MgB6O10·7H2O,"{""Mg"": 1.0, ""B"": 6.0, ""O"": 17.0, ""H"": 14.0}",375.28,#FFFFFF,monoclinic,"{""system"": ""monoclinic"", ""scale"": [0.7, 1.0, 1.3], ""optical"": {""transparent"": 1, ""refraction"": 1.5, ""birefringence"": 0.01}}"
Adolfpateraite,K(UO2)(SO4)(OH)(H2O),"{""K"": 1.0, ""U"": 1.0, ""O"": 8.0, ""S"": 1.0, ""H"": 3.0}",440.21,#FFFFFF,monoclinic,"{""system"": ""monoclinic"", ""scale"": [0.7, 1.0, 1.3], ""optical"": {""transparent"": 1, ""refraction"": 1.5, ""birefringence"": 0.01}}"
Adranosite,(NH4)4NaAl2(SO4)4Cl(OH)2,"{""N"": 4.0, ""H"": 18.0, ""Na"": 1.0, ""Al"": 2.0, ""S"": 4.0, ""O"": 18.0, ""Cl"": 1.0}",602.82,#FFFFFF,tetragonal,"{""system"": ""tetragonal"", ""scale"": [1.0, 1.0, 1.4], ""optical"": {""transparent"": 1, ""refraction"": 1.5, ""birefringence"": 0.01}}"
Adranosite-(Fe),(NH4)4NaFe2(SO4)4Cl(OH)2,"{""N"": 4.0, ""H"": 18.0, ""Na"": 1.0, ""Fe"": 2.0, ""S"": 4.0, ""O"": 18.0, ""Cl"": 1.0}",660.56,#556B2F,tetragonal,"{""system"": ""tetragonal"", ""scale"": [1.0, 1.0, 1.4], ""optical"": {""transparent"": 0, ""refraction"": 0.0, ""birefringence"": 0.0}}"
Adrianite,Ca12(Al4Mg3Si7)O32Cl6,"{""Ca"": 12.0, ""Al"": 4.0, ""Mg"": 3.0, ""Si"": 7.0, ""O"": 32.0, ""Cl"": 6.0}",1583.14,#FFFFFF,cubic,"{""system"": ""cubic"", ""scale"": [1.0, 1.0, 1.0], ""optical"": {""transparent"": 1, ""refraction"": 1.5, ""birefringence"": 0.0}}"
Aegirine,NaFe3+Si2O6,"{""Na"": 1.0, ""Fe"": 1.0, ""Si"": 2.0, ""O"": 6.0}",231.02,#556B2F,monoclinic,"{""system"": ""monoclinic"", ""scale"": [0.7, 1.0, 1.3], ""optical"": {""transparent"": 0, ""refraction"": 0.0, ""birefringence"": 0.0}}"
Aenigmatite,Na4[Fe2+10Ti2]O4[Si12O36],"{""Na"": 4.0, ""Fe"": 10.0, ""Ti"": 2.0, ""O"": 40.0, ""Si"": 12.0}",1723.28,#556B2F,triclinic,"{""system"": ""triclinic"", ""scale"": [0.7, 1.0, 1.3], ""optical"": {""transparent"": 0, ""refraction"": 0.0, ""birefringence"": 0.0}}"
Aeschynite-(Ce),Ce(TiNb)O6,"{""Ce"": 1.0, ""Ti"": 1.0, ""Nb"": 1.0, ""O"": 6.0}",376.9,#FFFFFF,orthorhombic,"{""system"": ""orthorhombic"", ""scale"": [0.8, 1.0, 1.2], ""optical"": {""transparent"": 1, ""refraction"": 1.5, ""birefringence"": 0.01}}"
Aeschynite-(Nd),Nd(TiNb)O6,"{""Nd"": 1.0, ""Ti"": 1.0, ""Nb"": 1.0, ""O"": 6.0}",381.02,#FFFFFF,orthorhombic,"{""system"": ""orthorhombic"", ""scale"": [0.8, 1.0, 1.2], ""optical"": {""transparent"": 1, ""refraction"": 1.5, ""birefringence"": 0.01}}"
Aeschynite-(Y),Y(TiNb)O6,"{""Y"": 1.0, ""Ti"": 1.0, ""Nb"": 1.0, ""O"": 6.0}",325.69,#FFFFFF,orthorhombic,"{""system"": ""orthorhombic"", ""scale"": [0.8, 1.0, 1.2], ""optical"": {""transparent"": 1, ""refraction"": 1.5, ""birefringence"": 0.01}}"
Afmite,Al3(OH)4(H2O)3(PO4)(PO3OH)·H2O,"{""Al"": 3.0, ""O"": 16.0, ""H"": 13.0, ""P"": 2.0}",411.98,#FFFFFF,triclinic,"{""system"": ""triclinic"", ""scale"": [0.7, 1.0, 1.3], ""optical"": {""transparent"": 1, ""refraction"": 1.5, ""birefringence"": 0.01}}"
Afwillite,Ca3[SiO4][SiO2(OH)2]·2H2O,"{""Ca"": 3.0, ""Si"": 2.0, ""O"": 10.0, ""H"": 6.0}",342.47,#FFFFFF,triclinic,"{""system"": ""triclinic"", ""scale"": [0.7, 1.0, 1.3], ""optical"": {""transparent"": 1, ""refraction"": 1.5, ""birefringence"": 0.01}}"
Agaite,Pb3Cu2+Te6+O5(OH)2(CO3),"{""Pb"": 3.0, ""Cu"": 1.0, ""Te"": 1.0, ""O"": 10.0, ""H"": 2.0, ""C"": 1.0}",986.78,#FFFFFF,orthorhombic,"{""system"": ""orthorhombic"", ""scale"": [0.8, 1.0, 1.2], ""optical"": {""transparent"": 1, ""refraction"": 1.5, ""birefringence"": 0.01}}"
Agardite-(Ce),CeCu2+6(AsO4)3(OH)6·3H2O,"{""Ce"": 1.0, ""Cu"": 6.0, ""As"": 3.0, ""O"": 21.0, ""H"": 12.0}",1094.28,#FFFFFF,hexagonal,"{""system"": ""hexagonal"", ""scale"": [1.0, 1.0, 1.6], ""optical"": {""transparent"": 1, ""refraction"": 1.5, ""birefringence"": 0.01}}"
Agardite-(La),LaCu2+6(AsO4)3(OH)6·3H2O,"{""La"": 1.0, ""Cu"": 6.0, ""As"": 3.0, ""O"": 21.0, ""H"": 12.0}",1093.07,#FFFFFF,hexagonal,"{""system"": ""hexagonal"", ""scale"": [1.0, 1.0, 1.6], ""optical"": {""transparent"": 1, ""refraction"": 1.5, ""birefringence"": 0.01}}"
Agardite-(Nd),NdCu2+6(AsO4)3(OH)6·3H2O,"{""Nd"": 1.0, ""Cu"": 6.0, ""As"": 3.0, ""O"": 21.0, ""H"": 12.0}",1098.4,#FFFFFF,hexagonal,"{""system"": ""hexagonal"", ""scale"": [1.0, 1.0, 1.6], ""optical"": {""transparent"": 1, ""refraction"": 1.5, ""birefringence"": 0.01}}"
Agardite-(Y),YCu2+6(AsO4)3(OH)6·3H2O,"{""Y"": 1.0, ""Cu"": 6.0, ""As"": 3.0, ""O"": 21.0, ""H"": 12.0}",1043.07,#FFFFFF,hexagonal,"{""system"": ""hexagonal"", ""scale"": [1.0, 1.0, 1.6], ""optical"": {""transparent"": 1, ""refraction"": 1.5, ""birefringence"": 0.01}}"
Agrellite,NaCa2Si4O10F,"{""Na"": 1.0, ""Ca"": 2.0, ""Si"": 4.0, ""O"": 10.0, ""F"": 1.0}",394.51,#FFFFFF,triclinic,"{""system"": ""triclinic"", ""scale"": [0.7, 1.0, 1.3], ""optical"": {""transparent"": 1, ""refraction"": 1.5, ""birefringence"": 0.01}}"
Agricolaite,K4(UO2)(CO3)3,"{""K"": 4.0, ""U"": 1.0, ""O"": 11.0, ""C"": 3.0}",606.46,#FFFFFF,monoclinic,"{""system"": ""monoclinic"", ""scale"": [0.7, 1.0, 1.3], ""optical"": {""transparent"": 1, ""refraction"": 1.5, ""birefringence"": 0.01}}"
Agrinierite,K2Ca[(UO2)3O3(OH)2]2·5H2O,"{""K"": 2.0, ""Ca"": 1.0, ""U"": 6.0, ""O"": 27.0, ""H"": 14.0}",1992.57,#FFFFFF,orthorhombic,"{""system"": ""orthorhombic"", ""scale"": [0.8, 1.0, 1.2], ""optical"": {""transparent"": 1, ""refraction"": 1.5, ""birefringence"": 0.01}}"
Aguilarite,Ag4SeS,"{""Ag"": 4.0, ""Se"": 1.0, ""S"": 1.0}",542.5,#A9A9A9,monoclinic,"{""system"": ""monoclinic"", ""scale"": [0.7, 1.0, 1.3], ""optical"": {""transparent"": 0, ""refraction"": 0.0, ""birefringence"": 0.0}}"
Aheylite,Fe2+Al6(PO4)4(OH)8·4H2O,"{""Fe"": 1.0, ""Al"": 6.0, ""P"": 4.0, ""O"": 28.0, ""H"": 16.0}",805.74,#556B2F,triclinic,"{""system"": ""triclinic"", ""scale"": [0.7, 1.0, 1.3], ""optical"": {""transparent"": 0, ""refraction"": 0.0, ""birefringence"": 0.0}}"
Ahlfeldite,Ni(SeO3)·2H2O,"{""Ni"": 1.0, ""Se"": 1.0, ""O"": 5.0, ""H"": 4.0}",221.68,#FFFFFF,monoclinic,"{""system"": ""monoclinic"", ""scale"": [0.7, 1.0, 1.3], ""optical"": {""transparent"": 1, ""refraction"": 1.5, ""birefringence"": 0.01}}"
Ahrensite,SiFe2O4,"{""Si"": 1.0, ""Fe"": 2.0, ""O"": 4.0}",203.79,#8B4513,cubic,"{""system"": ""cubic"", ""scale"": [1.0, 1.0, 1.0], ""optical"": {""transparent"": 0, ""refraction"": 0.0, ""birefringence"": 0.0}}"
Aikinite,CuPbBiS3,"{""Cu"": 1.0, ""Pb"": 1.0, ""Bi"": 1.0, ""S"": 3.0}",575.91,#708090,orthorhombic,"{""system"": ""orthorhombic"", ""scale"": [0.8, 1.0, 1.2], ""optical"": {""transparent"": 0, ""refraction"": 0.0, ""birefringence"": 0.0}}"
Aiolosite,Na2(Na2Bi)(SO4)3Cl,"{""Na"": 4.0, ""Bi"": 1.0, ""S"": 3.0, ""O"": 12.0, ""Cl"": 1.0}",624.57,#FFFFFF,hexagonal,"{""system"": ""hexagonal"", ""scale"": [1.0, 1.0, 1.6], ""optical"": {""transparent"": 1, ""refraction"": 1.5, ""birefringence"": 0.01}}"
Airdite,Sr(V4+O)2(PO4)2·4H2O,"{""Sr"": 1.0, ""V"": 2.0, ""O"": 14.0, ""P"": 2.0, ""H"": 8.0}",483.5,#FFFFFF,monoclinic,"{""system"": ""monoclinic"", ""scale"": [0.7, 1.0, 1.3], ""optical"": {""transparent"": 1, ""refraction"": 1.5, ""birefringence"": 0.01}}"
Ajoite,K3Cu2+20Al3Si29O76(OH)16·8H2O,"{""K"": 3.0, ""Cu"": 20.0, ""Al"": 3.0, ""Si"": 29.0, ""O"": 100.0, ""H"": 32.0}",3916.11,#FFFFFF,triclinic,"{""system"": ""triclinic"", ""scale"": [0.7, 1.0, 1.3], ""optical"": {""transparent"": 1, ""refraction"": 1.5, ""birefringence"": 0.01}}"
Akaogiite,TiO2,"{""Ti"": 1.0, ""O"": 2.0}",79.87,#FFFFFF,monoclinic,"{""system"": ""monoclinic"", ""scale"": [0.7, 1.0, 1.3], ""optical"": {""transparent"": 1, ""refraction"": 1.5, ""birefringence"": 0.01}}"
Akdalaite,Al5O7(OH),"{""Al"": 5.0, ""O"": 8.0, ""H"": 1.0}",263.91,#FFFFFF,orthorhombic,"{""system"": ""orthorhombic"", ""scale"": [0.8, 1.0, 1.2], ""optical"": {""transparent"": 1, ""refraction"": 1.5, ""birefringence"": 0.01}}"
Akermanite,Ca2MgSi2O7,"{""Ca"": 2.0, ""Mg"": 1.0, ""Si"": 2.0, ""O"": 7.0}",272.65,#FFFFFF,tetragonal,"{""system"": ""tetragonal"", ""scale"": [1.0, 1.0, 1.4], ""optical"": {""transparent"": 1, ""refraction"": 1.5, ""birefringence"": 0.01}}"
Akimotoite,MgSiO3,"{""Mg"": 1.0, ""Si"": 1.0, ""O"": 3.0}",100.4,#FFFFFF,hexagonal,"{""system"": ""hexagonal"", ""scale"": [1.0, 1.0, 1.6], ""optical"": {""transparent"": 1, ""refraction"": 1.5, ""birefringence"": 0.01}}"
Aklimaite,Ca4[Si2O5(OH)2](OH)4·5H2O,"{""Ca"": 4.0, ""Si"": 2.0, ""O"": 16.0, ""H"": 16.0}",488.63,#FFFFFF,monoclinic,"{""system"": ""monoclinic"", ""scale"": [0.7, 1.0, 1.3], ""optical"": {""transparent"": 1, ""refraction"": 1.5, ""birefringence"": 0.01}}"
Akopovaite,Al4Li2(OH)12(CO3)(H2O)3,"{""Al"": 4.0, ""Li"": 2.0, ""O"": 18.0, ""H"": 18.0, ""C"": 1.0}",439.95,#FFFFFF,monoclinic,"{""system"": ""monoclinic"", ""scale"": [0.7, 1.0, 1.3], ""optical"": {""transparent"": 1, ""refraction"": 1.5, ""birefringence"": 0.01}}"
Aksaite,MgB6O7(OH)6·2H2O,"{""Mg"": 1.0, ""B"": 6.0, ""O"": 15.0, ""H"": 10.0}",339.25,#FFFFFF,orthorhombic,"{""system"": ""orthorhombic"", ""scale"": [0.8, 1.0, 1.2], ""optical"": {""transparent"": 1, ""refraction"": 1.5, ""birefringence"": 0.01}}"
Aktashite,Cu6Hg3As4S12,"{""Cu"": 6.0, ""Hg"": 3.0, ""As"": 4.0, ""S"": 12.0}",1667.47,#FFD700,hexagonal,"{""system"": ""hexagonal"", ""scale"": [1.0, 1.0, 1.6], ""optical"": {""transparent"": 0, ""refraction"": 0.0, ""birefringence"": 0.0}}"
Alacranite,As8S9,"{""As"": 8.0, ""S"": 9.0}",887.9,#FFD700,monoclinic,"{""system"": ""monoclinic"", ""scale"": [0.7, 1.0, 1.3], ""optical"": {""transparent"": 0, ""refraction"": 0.0, ""birefringence"": 0.0}}"
Alamosite,PbSiO3,"{""Pb"": 1.0, ""Si"": 1.0, ""O"": 3.0}",283.29,#FFFFFF,monoclinic,"{""system"": ""monoclinic"", ""scale"": [0.7, 1.0, 1.3], ""optical"": {""transparent"": 1, ""refraction"": 1.5, ""birefringence"": 0.01}}"
Alarsite,Al(AsO4),"{""Al"": 1.0, ""As"": 1.0, ""O"": 4.0}",165.9,#808080,hexagonal,"{""system"": ""hexagonal"", ""scale"": [1.0, 1.0, 1.6], ""optical"": {""transparent"": 0, ""refraction"": 0.0, ""birefringence"": 0.0}}"
Albertiniite,Fe2+(SO3)·3H2O,"{""Fe"": 1.0, ""S"": 1.0, ""O"": 6.0, ""H"": 6.0}",189.96,#556B2F,monoclinic,"{""system"": ""monoclinic"", ""scale"": [0.7, 1.0, 1.3], ""optical"": {""transparent"": 0, ""refraction"": 0.0, ""birefringence"": 0.0}}"
Albite,Na(AlSi3O8),"{""Na"": 1.0, ""Al"": 1.0, ""Si"": 3.0, ""O"": 8.0}",262.24,#FFFFFF,monoclinic,"{""system"": ""monoclinic"", ""scale"": [0.7, 1.0, 1.3], ""optical"": {""transparent"": 1, ""refraction"": 1.5, ""birefringence"": 0.01}}"
Albrechtschraufite,MgCa4F2[UO2(CO3)3]2·17-18H2O,"{""Mg"": 1.0, ""Ca"": 4.0, ""F"": 2.0, ""U"": 2.0, ""O"": 40.0, ""C"": 6.0, ""H"": 36.0}",1447.04,#FFFFFF,triclinic,"{""system"": ""triclinic"", ""scale"": [0.7, 1.0, 1.3], ""optical"": {""transparent"": 1, ""refraction"": 1.5, ""birefringence"": 0.01}}"
Alburnite,Ag8GeTe2S4,"{""Ag"": 8.0, ""Ge"": 1.0, ""Te"": 2.0, ""S"": 4.0}",1319.03,#A9A9A9,cubic,"{""system"": ""cubic"", ""scale"": [1.0, 1.0, 1.0], ""optical"": {""transparent"": 0, ""refraction"": 0.0, ""birefringence"": 0.0}}"
Alcaparrosaite,K3Ti4+Fe3+(SO4)4O(H2O)2,"{""K"": 3.0, ""Ti"": 1.0, ""Fe"": 1.0, ""S"": 4.0, ""O"": 19.0, ""H"": 4.0}",657.29,#556B2F,monoclinic,"{""system"": ""monoclinic"", ""scale"": [0.7, 1.0, 1.3], ""optical"": {""transparent"": 0, ""refraction"": 0.0, ""birefringence"": 0.0}}"
Aldermanite,[Mg(H2O)6][Na(H2O)2Al3(PO4)2(OH)6]·H2O,"{""Mg"": 1.0, ""H"": 24.0, ""O"": 23.0, ""Na"": 1.0, ""Al"": 3.0, ""P"": 2.0}",582.37,#FFFFFF,monoclinic,"{""system"": ""monoclinic"", ""scale"": [0.7, 1.0, 1.3], ""optical"": {""transparent"": 1, ""refraction"": 1.5, ""birefringence"": 0.01}}"
Aleksite,PbBi2Te2S2,"{""Pb"": 1.0, ""Bi"": 2.0, ""Te"": 2.0, ""S"": 2.0}",944.48,#708090,hexagonal,"{""system"": ""hexagonal"", ""scale"": [1.0, 1.0, 1.6], ""optical"": {""transparent"": 0, ""refraction"": 0.0, ""birefringence"": 0.0}}"
Alexearlite,Hg3(MoO4)S2,"{""Hg"": 3.0, ""Mo"": 1.0, ""O"": 4.0, ""S"": 2.0}",825.84,#FFFFFF,orthorhombic,"{""system"": ""orthorhombic"", ""scale"": [0.8, 1.0, 1.2], ""optical"": {""transparent"": 1, ""refraction"": 1.5, ""birefringence"": 0.01}}"
Alexkhomyakovite,K6(Ca2Na)(CO3)5Cl·6H2O,"{""K"": 6.0, ""Ca"": 2.0, ""Na"": 1.0, ""C"": 5.0, ""O"": 21.0, ""Cl"": 1.0, ""H"": 12.0}",781.35,#FFFFFF,hexagonal,"{""system"": ""hexagonal"", ""scale"": [1.0, 1.0, 1.6], ""optical"": {""transparent"": 1, ""refraction"": 1.5, ""birefringence"": 0.01}}"
Alflarsenite,NaCa2Be3Si4O13(OH)·2H2O,"{""Na"": 1.0, ""Ca"": 2.0, ""Be"": 3.0, ""Si"": 4.0, ""O"": 16.0, ""H"": 5.0}",503.58,#FFFFFF,monoclinic,"{""system"": ""monoclinic"", ""scale"": [0.7, 1.0, 1.3], ""optical"": {""transparent"": 1, ""refraction"": 1.5, ""birefringence"": 0.01}}"
Alforsite,Ba5(PO4)3Cl,"{""Ba"": 5.0, ""P"": 3.0, ""O"": 12.0, ""Cl"": 1.0}",1007.01,#FFFFFF,hexagonal,"{""system"": ""hexagonal"", ""scale"": [1.0, 1.0, 1.6], ""optical"": {""transparent"": 1, ""refraction"": 1.5, ""birefringence"": 0.01}}"
Alfredcasparite,Sr2TiO(Si2O7),"{""Sr"": 2.0, ""Ti"": 1.0, ""O"": 8.0, ""Si"": 2.0}",407.29,#FFFFFF,tetragonal,"{""system"": ""tetragonal"", ""scale"": [1.0, 1.0, 1.4], ""optical"": {""transparent"": 1, ""refraction"": 1.5, ""birefringence"": 0.01}}"
Alfredopetrovite,Al2(Se4+O3)3·6H2O,"{""Al"": 2.0, ""Se"": 3.0, ""O"": 15.0, ""H"": 12.0}",542.94,#FFFFFF,hexagonal,"{""system"": ""hexagonal"", ""scale"": [1.0, 1.0, 1.6], ""optical"": {""transparent"": 1, ""refraction"": 1.5, ""birefringence"": 0.01}}"
Alfredstelznerite,Ca4(H2O)4[B4O4(OH)6]4(H2O)15,"{""Ca"": 4.0, ""H"": 62.0, ""O"": 59.0, ""B"": 16.0}",1339.78,#FFFFFF,orthorhombic,"{""system"": ""orthorhombic"", ""scale"": [0.8, 1.0, 1.2], ""optical"": {""transparent"": 1, ""refraction"": 1.5, ""birefringence"": 0.01}}"
Alicewilsonite-(YCe),Na2Sr2YCe(CO3)6·3H2O,"{""Na"": 2.0, ""Sr"": 2.0, ""Y"": 1.0, ""Ce"": 1.0, ""C"": 6.0, ""O"": 21.0, ""H"": 6.0}",864.36,#FFFFFF,triclinic,"{""system"": ""triclinic"", ""scale"": [0.7, 1.0, 1.3], ""optical"": {""transparent"": 1, ""refraction"": 1.5, ""birefringence"": 0.01}}"
Alicewilsonite-(YLa),Na2Sr2YLa(CO3)6·3H2O,"{""Na"": 2.0, ""Sr"": 2.0, ""Y"": 1.0, ""La"": 1.0, ""C"": 6.0, ""O"": 21.0, ""H"": 6.0}",863.15,#FFFFFF,triclinic,"{""system"": ""triclinic"", ""scale"": [0.7, 1.0, 1.3], ""optical"": {""transparent"": 1, ""refraction"": 1.5, ""birefringence"": 0.01}}"
Allanite-(Ce),CaCe(Al2Fe2+)[Si2O7][SiO4]O(OH),"{""Ca"": 1.0, ""Ce"": 1.0, ""Al"": 2.0, ""Fe"": 1.0, ""Si"": 3.0, ""O"": 13.0, ""H"": 1.0}",583.29,#556B2F,monoclinic,"{""system"": ""monoclinic"", ""scale"": [0.7, 1.0, 1.3], ""optical"": {""transparent"": 0, ""refraction"": 0.0, ""birefringence"": 0.0}}"
Allanite-(La),CaLa(Al2Fe2+)[Si2O7][SiO4]O(OH),"{""Ca"": 1.0, ""La"": 1.0, ""Al"": 2.0, ""Fe"": 1.0, ""Si"": 3.0, ""O"": 13.0, ""H"": 1.0}",582.08,#556B2F,monoclinic,"{""system"": ""monoclinic"", ""scale"": [0.7, 1.0, 1.3], ""optical"": {""transparent"": 0, ""refraction"": 0.0, ""birefringence"": 0.0}}"
Allanite-(Nd),CaNd(Al2Fe2+)[Si2O7][SiO4]O(OH),"{""Ca"": 1.0, ""Nd"": 1.0, ""Al"": 2.0, ""Fe"": 1.0, ""Si"": 3.0, ""O"": 13.0, ""H"": 1.0}",587.41,#556B2F,monoclinic,"{""system"": ""monoclinic"", ""scale"": [0.7, 1.0, 1.3], ""optical"": {""transparent"": 0, ""refraction"": 0.0, ""birefringence"": 0.0}}"
Allanite-(Sm),CaSm(Al2Fe2+)(Si2O7)(SiO4)O(OH),"{""Ca"": 1.0, ""Sm"": 1.0, ""Al"": 2.0, ""Fe"": 1.0, ""Si"": 3.0, ""O"": 13.0, ""H"": 1.0}",593.53,#556B2F,monoclinic,"{""system"": ""monoclinic"", ""scale"": [0.7, 1.0, 1.3], ""optical"": {""transparent"": 0, ""refraction"": 0.0, ""birefringence"": 0.0}}"
Allanite-(Y),CaY(Al2Fe2+)(Si2O7)(SiO4)O(OH),"{""Ca"": 1.0, ""Y"": 1.0, ""Al"": 2.0, ""Fe"": 1.0, ""Si"": 3.0, ""O"": 13.0, ""H"": 1.0}",532.08,#556B2F,monoclinic,"{""system"": ""monoclinic"", ""scale"": [0.7, 1.0, 1.3], ""optical"": {""transparent"": 0, ""refraction"": 0.0, ""birefringence"": 0.0}}"
Allanpringite,Fe3+3(PO4)2(OH)3·5H2O,"{""Fe"": 3.0, ""P"": 2.0, ""O"": 16.0, ""H"": 13.0}",498.59,#556B2F,monoclinic,"{""system"": ""monoclinic"", ""scale"": [0.7, 1.0, 1.3], ""optical"": {""transparent"": 0, ""refraction"": 0.0, ""birefringence"": 0.0}}"
Allantoin,C4H6N4O3,"{""C"": 4.0, ""H"": 6.0, ""N"": 4.0, ""O"": 3.0}",158.13,#FFFFFF,monoclinic,"{""system"": ""monoclinic"", ""scale"": [0.7, 1.0, 1.3], ""optical"": {""transparent"": 1, ""refraction"": 1.5, ""birefringence"": 0.01}}"