name,formula,elements,density,color,crystal,pm_ids,gacha_weight
Nannoniite,Al2(OH)5F,"{""Al"": 2.0, ""O"": 5.0, ""H"": 5.0, ""F"": 1.0}",157.997,#FFFFFF,monoclinic,{},1.0
Nanpingite,CsAl2(Si3Al)O10(OH)2,"{""Cs"": 1.0, ""Al"": 3.0, ""Si"": 3.0, ""O"": 12.0, ""H"": 2.0}",492.115,#FFFFFF,monoclinic,{34},564.0
Nantokite,CuCl,"{""Cu"": 1.0, ""Cl"": 1.0}",98.996,#00BFFF,cubic,"{45,47,50,54,56}",3072.0
Napoliite,Pb2OFCl,"{""Pb"": 2.0, ""O"": 1.0, ""F"": 1.0, ""Cl"": 1.0}",484.847,#FFFFFF,tetragonal,{},1.0
Naquite,FeSi,"{""Fe"": 1.0, ""Si"": 1.0}",83.93,#8B4513,cubic,"{5,36,38}",493.0
Nashite,Na3Ca2[(V4+V5+9)O28]·24H2O,"{""Na"": 3.0, ""Ca"": 2.0, ""V"": 10.0, ""O"": 52.0, ""H"": 48.0}",1538.878,#FFFFFF,monoclinic,{47},1998.0
Nasinite,Na2B5O8(OH)·2H2O,"{""Na"": 2.0, ""B"": 5.0, ""O"": 11.0, ""H"": 5.0}",281.059,#FFFFFF,orthorhombic,"{25,55,57}",523.0
Nasonite,Ca4Pb6(Si2O7)3Cl2,"{""Ca"": 4.0, ""Pb"": 6.0, ""Si"": 6.0, ""O"": 21.0, ""Cl"": 2.0}",1978.901,#FFFFFF,hexagonal,"{22,32}",659.0
Nastrophite,NaSr(PO4)·9H2O,"{""Na"": 1.0, ""Sr"": 1.0, ""P"": 1.0, ""O"": 13.0, ""H"": 18.0}",367.715,#FFFFFF,cubic,"{23,35}",1124.0
Nataliyamalikite,TlI,"{""Tl"": 1.0, ""I"": 1.0}",331.28,#FFFFFF,orthorhombic,{45},424.0
Natalyite,NaV3+Si2O6,"{""Na"": 1.0, ""V"": 1.0, ""Si"": 2.0, ""O"": 6.0}",226.096,#FFFFFF,monoclinic,{53},117.0
Natisite,Na2TiO(SiO4),"{""Na"": 2.0, ""Ti"": 1.0, ""O"": 5.0, ""Si"": 1.0}",201.927,#FFFFFF,tetragonal,{35},726.0
Natrite,Na2(CO3),"{""Na"": 2.0, ""C"": 1.0, ""O"": 3.0}",105.988,#FFFFFF,monoclinic,"{25,31,35,45}",1716.0
Natroalunite,NaAl3(SO4)2(OH)6,"{""Na"": 1.0, ""Al"": 3.0, ""S"": 2.0, ""O"": 14.0, ""H"": 6.0}",398.09,#FFFFFF,hexagonal,"{24,45,46}",550.0
Natroaphthitalite,KNa3(SO4)2,"{""K"": 1.0, ""Na"": 3.0, ""S"": 2.0, ""O"": 8.0}",300.18,#FFFFFF,hexagonal,{45},424.0
Natroboltwoodite,Na(UO2)(SiO3OH)·H2O,"{""Na"": 1.0, ""U"": 1.0, ""O"": 7.0, ""Si"": 1.0, ""H"": 3.0}",404.122,#FFFFFF,orthorhombic,{47},1998.0
Natrochalcite,NaCu2(SO4)2(OH)·H2O,"{""Na"": 1.0, ""Cu"": 2.0, ""S"": 2.0, ""O"": 10.0, ""H"": 3.0}",377.216,#FFFFFF,monoclinic,"{45,47}",2422.0
Natrodufrenite,NaFe2+Fe3+5(PO4)4(OH)6·2H2O,"{""Na"": 1.0, ""Fe"": 6.0, ""P"": 4.0, ""O"": 24.0, ""H"": 10.0}",876.012,#556B2F,monoclinic,"{34,47}",2562.0
Natrojarosite,NaFe3+3(SO4)2(OH)6,"{""Na"": 1.0, ""Fe"": 3.0, ""S"": 2.0, ""O"": 14.0, ""H"": 6.0}",484.679,#556B2F,hexagonal,"{45,46,47}",2474.0
Natrolemoynite,Na4Zr2Si10O26·9H2O,"{""Na"": 4.0, ""Zr"": 2.0, ""Si"": 10.0, ""O"": 35.0, ""H"": 18.0}",1133.367,#FFFFFF,monoclinic,{35},726.0
Natrolite,Na2(Si3Al2)O10·2H2O,"{""Na"": 2.0, ""Si"": 3.0, ""Al"": 2.0, ""O"": 12.0, ""H"": 4.0}",380.219,#FFFFFF,monoclinic,"{9,10,16,17,22,24,35,53}",1532.0
Natromarkeyite,Na2Ca8(UO2)4(CO3)13(H2O)24·3H2O,"{""Na"": 2.0, ""Ca"": 8.0, ""U"": 4.0, ""O"": 74.0, ""C"": 13.0, ""H"": 54.0}",2713.225,#FFFFFF,orthorhombic,{47},1998.0
Natromelansonite,Na3Zr[Si7AlO19]·4H2O,"{""Na"": 3.0, ""Zr"": 1.0, ""Si"": 7.0, ""Al"": 1.0, ""O"": 23.0, ""H"": 8.0}",759.812,#FFFFFF,monoclinic,{},1.0
Natromolybdite,Na2MoO4·2H2O,"{""Na"": 2.0, ""Mo"": 1.0, ""O"": 6.0, ""H"": 4.0}",241.956,#FFFFFF,orthorhombic,{},1.0
Natron,Na2(CO3)·10H2O,"{""Na"": 2.0, ""C"": 1.0, ""O"": 13.0, ""H"": 20.0}",286.138,#FFFFFF,monoclinic,"{25,35,47}",2934.0
Natroniobite,NaNbO3,"{""Na"": 1.0, ""Nb"": 1.0, ""O"": 3.0}",163.893,#FFFFFF,monoclinic,{35},726.0
Natropalermoite,Na2SrAl4(PO4)4(OH)4,"{""Na"": 2.0, ""Sr"": 1.0, ""Al"": 4.0, ""P"": 4.0, ""O"": 20.0, ""H"": 4.0}",689.436,#FFFFFF,orthorhombic,{34},564.0
Natropharmacoalumite,NaAl4(AsO4)3(OH)4·4H2O,"{""Na"": 1.0, ""Al"": 4.0, ""As"": 3.0, ""O"": 20.0, ""H"": 12.0}",687.76,#FFFFFF,cubic,{47},1998.0
Natropharmacosiderite,NaFe3+4(AsO4)3(OH)4·4H2O,"{""Na"": 1.0, ""Fe"": 4.0, ""As"": 3.0, ""O"": 20.0, ""H"": 12.0}",803.212,#556B2F,cubic,{47},1998.0
Natrophosphate,Na7(PO4)2F·19H2O,"{""Na"": 7.0, ""P"": 2.0, ""O"": 27.0, ""F"": 1.0, ""H"": 38.0}",712.153,#FFFFFF,cubic,"{9,10,35}",960.0
Natrosilite,Na2Si2O5,"{""Na"": 2.0, ""Si"": 2.0, ""O"": 5.0}",182.145,#FFFFFF,monoclinic,"{9,35}",853.0
Natrosulfatourea,Na2(SO4)[CO(NH2)2],"{""Na"": 2.0, ""S"": 1.0, ""O"": 5.0, ""C"": 1.0, ""N"": 2.0, ""H"": 4.0}",202.092,#FFFFFF,orthorhombic,"{47,52}",2070.0
Natrotantite,Na2Ta4O11,"{""Na"": 2.0, ""Ta"": 4.0, ""O"": 11.0}",945.769,#FFFFFF,hexagonal,{34},564.0
Natrouranospinite,Na2(UO2)2(AsO4)2·5H2O,"{""Na"": 2.0, ""U"": 2.0, ""O"": 17.0, ""As"": 2.0, ""H"": 10.0}",953.947,#FFFFFF,tetragonal,{47},1998.0
Natroxalate,Na2(C2O4),"{""Na"": 2.0, ""C"": 2.0, ""O"": 4.0}",133.998,#FFFFFF,unknown,"{22,52}",319.0
Natrozippeite,Na5(UO2)8(SO4)4O5(OH)3·12H2O,"{""Na"": 5.0, ""U"": 8.0, ""O"": 52.0, ""S"": 4.0, ""H"": 27.0}",3006.594,#FFFFFF,monoclinic,"{47,55}",2262.0
Naujakasite,Na6Fe2+Al4Si8O26,"{""Na"": 6.0, ""Fe"": 1.0, ""Al"": 4.0, ""Si"": 8.0, ""O"": 26.0}",942.367,#556B2F,monoclinic,{35},726.0
Naumannite,Ag2Se,"{""Ag"": 2.0, ""Se"": 1.0}",294.711,#C0C0C0,orthorhombic,{33},797.0
Navrotskyite,K2Na10(UO2)3(SO4)9·2H2O,"{""K"": 2.0, ""Na"": 10.0, ""U"": 3.0, ""O"": 44.0, ""S"": 9.0, ""H"": 4.0}",2018.714,#FFFFFF,orthorhombic,{47},1998.0
Nazarchukite,Ca2NiFe3+2(PO4)4,"{""Ca"": 2.0, ""Ni"": 1.0, ""Fe"": 2.0, ""P"": 4.0, ""O"": 16.0}",630.419,#556B2F,orthorhombic,{51},128.0
Nazarovite,Ni12P5,"{""Ni"": 12.0, ""P"": 5.0}",859.186,#7FFF00,tetragonal,"{4,51}",175.0
Nealite,Pb4Fe(AsO3)2Cl4·2H2O,"{""Pb"": 4.0, ""Fe"": 1.0, ""As"": 2.0, ""O"": 8.0, ""Cl"": 4.0, ""H"": 4.0}",1308.313,#556B2F,triclinic,"{47,56}",2141.0
Nefedovite,Na5Ca4(PO4)4F,"{""Na"": 5.0, ""Ca"": 4.0, ""P"": 4.0, ""O"": 16.0, ""F"": 1.0}",674.14,#FFFFFF,tetragonal,{35},726.0
Negevite,NiP2,"{""Ni"": 1.0, ""P"": 2.0}",120.641,#7FFF00,cubic,{51},128.0
Neighborite,NaMgF3,"{""Na"": 1.0, ""Mg"": 1.0, ""F"": 3.0}",104.289,#FFFFFF,cubic,"{9,10,24,35,36}",1325.0
Nekoite,Ca3Si6O15·7H2O,"{""Ca"": 3.0, ""Si"": 6.0, ""O"": 22.0, ""H"": 14.0}",654.834,#FFFFFF,triclinic,{31},356.0
Nepheline,Na3K(Al4Si4O16),"{""Na"": 3.0, ""K"": 1.0, ""Al"": 4.0, ""Si"": 4.0, ""O"": 16.0}",584.32,#FFFFFF,hexagonal,"{4,6,9,31,35,36,40,51}",2199.0
Nepouite,Ni3Si2O5(OH)4,"{""Ni"": 3.0, ""Si"": 2.0, ""O"": 9.0, ""H"": 4.0}",380.272,#FFFFFF,unknown,"{38,47}",2106.0
Nepskoeite,Mg4Cl(OH)7·6H2O,"{""Mg"": 4.0, ""Cl"": 1.0, ""O"": 13.0, ""H"": 19.0}",359.809,#FFFFFF,orthorhombic,{25},210.0
Neptunite,KNa2LiFe2+2Ti2Si8O24,"{""K"": 1.0, ""Na"": 2.0, ""Li"": 1.0, ""Fe"": 2.0, ""Ti"": 2.0, ""Si"": 8.0, ""O"": 24.0}",908.098,#556B2F,monoclinic,{35},726.0
Nesquehonite,Mg(CO3)·3H2O,"{""Mg"": 1.0, ""C"": 1.0, ""O"": 6.0, ""H"": 6.0}",138.358,#FFFFFF,monoclinic,"{13,21,25,49,50,53,54,55}",1321.0
Nestolaite,CaSeO3·H2O,"{""Ca"": 1.0, ""Se"": 1.0, ""O"": 4.0, ""H"": 2.0}",185.061,#FFFFFF,monoclinic,{47},1998.0
Newberyite,Mg(PO3OH)·3H2O,"{""Mg"": 1.0, ""P"": 1.0, ""O"": 7.0, ""H"": 7.0}",174.328,#FFFFFF,orthorhombic,"{47,49,50,52,54}",2654.0
Neyite,Ag2Cu6Pb25Bi26S68,"{""Ag"": 2.0, ""Cu"": 6.0, ""Pb"": 25.0, ""Bi"": 26.0, ""S"": 68.0}",13390.576,#708090,monoclinic,{33},797.0
Nickel,Ni,"{""Ni"": 1.0}",58.693,#7FFF00,hexagonal,"{13,36,38}",466.0
Nickelalumite,NiAl4(SO4)(OH)12(H2O)3,"{""Ni"": 1.0, ""Al"": 4.0, ""S"": 1.0, ""O"": 19.0, ""H"": 18.0}",520.806,#FFFFFF,monoclinic,{},1.0
Nickelaustinite,CaNi(AsO4)(OH),"{""Ca"": 1.0, ""Ni"": 1.0, ""As"": 1.0, ""O"": 5.0, ""H"": 1.0}",254.696,#FFFFFF,orthorhombic,{47},1998.0
Nickelbischofite,NiCl2·6H2O,"{""Ni"": 1.0, ""Cl"": 2.0, ""H"": 12.0, ""O"": 6.0}",237.683,#FFFFFF,monoclinic,"{13,47,50,54,57}",2621.0
Nickelblodite,Na2Ni(SO4)2·4H2O,"{""Na"": 2.0, ""Ni"": 1.0, ""S"": 2.0, ""O"": 12.0, ""H"": 8.0}",368.845,#FFFFFF,monoclinic,"{25,47}",2208.0
Nickelboussingaultite,(NH4)2Ni(SO4)2·6H2O,"{""N"": 2.0, ""H"": 20.0, ""Ni"": 1.0, ""S"": 2.0, ""O"": 14.0}",394.973,#FFFFFF,monoclinic,"{47,55}",2262.0
Nickelhexahydrite,Ni(SO4)·6H2O,"{""Ni"": 1.0, ""S"": 1.0, ""O"": 10.0, ""H"": 12.0}",262.839,#FFFFFF,monoclinic,"{43,45,47,55}",2695.0
Nickeline,NiAs,"{""Ni"": 1.0, ""As"": 1.0}",133.615,#7FFF00,orthorhombic,"{33,37}",932.0
Nickellotharmeyerite,CaNi2(AsO4)2·2H2O,"{""Ca"": 1.0, ""Ni"": 2.0, ""As"": 2.0, ""O"": 10.0, ""H"": 4.0}",471.33,#FFFFFF,monoclinic,{47},1998.0
Nickelphosphide,Ni3P,"{""Ni"": 3.0, ""P"": 1.0}",207.053,#7FFF00,tetragonal,"{4,5,6,33}",1143.0
Nickelpicromerite,K2Ni(SO4)2·6H2O,"{""K"": 2.0, ""Ni"": 1.0, ""S"": 2.0, ""O"": 14.0, ""H"": 12.0}",437.091,#FFFFFF,monoclinic,{47},1998.0
Nickelschneebergite,BiNi2(AsO4)2(OH)·H2O,"{""Bi"": 1.0, ""Ni"": 2.0, ""As"": 2.0, ""O"": 10.0, ""H"": 3.0}",639.224,#FFFFFF,monoclinic,{47},1998.0
Nickelskutterudite,NiAs3,"{""Ni"": 1.0, ""As"": 3.0}",283.459,#7FFF00,cubic,"{33,36,38}",1196.0
Nickeltalmessite,Ca2Ni(AsO4)2·2H2O,"{""Ca"": 2.0, ""Ni"": 1.0, ""As"": 2.0, ""O"": 10.0, ""H"": 4.0}",452.715,#FFFFFF,triclinic,{47},1998.0
Nickeltyrrellite,CuNi2Se4,"{""Cu"": 1.0, ""Ni"": 2.0, ""Se"": 4.0}",496.816,#00BFFF,cubic,{33},797.0
Nickelzippeite,Ni2(UO2)6(SO4)3(OH)10·16H2O,"{""Ni"": 2.0, ""U"": 6.0, ""O"": 50.0, ""S"": 3.0, ""H"": 42.0}",2484.032,#FFFFFF,unknown,"{47,55}",2262.0
Nickolayite,FeMoP,"{""Fe"": 1.0, ""Mo"": 1.0, ""P"": 1.0}",182.769,#8B4513,orthorhombic,{51},128.0
Nicksobolevite,Cu7(SeO3)2O2Cl6,"{""Cu"": 7.0, ""Se"": 2.0, ""O"": 8.0, ""Cl"": 6.0}",943.456,#FFFFFF,monoclinic,{45},424.0
Niedermayrite,Cu4Cd(SO4)2(OH)6·4H2O,"{""Cu"": 4.0, ""Cd"": 1.0, ""S"": 2.0, ""O"": 18.0, ""H"": 14.0}",732.808,#FFFFFF,monoclinic,{47},1998.0
Nielsenite,PdCu3,"{""Pd"": 1.0, ""Cu"": 3.0}",297.058,#00BFFF,tetragonal,"{26,37}",385.0
Nierite,Si3N4,"{""Si"": 3.0, ""N"": 4.0}",140.283,#FFFFFF,hexagonal,{1},22.0
Nifontovite,Ca3[BO(OH)2]6·2H2O,"{""Ca"": 3.0, ""B"": 6.0, ""O"": 20.0, ""H"": 16.0}",521.202,#FFFFFF,monoclinic,{23},398.0
Nigelcookite,PbFe2+2V3+2(PO4)3(OH)3,"{""Pb"": 1.0, ""Fe"": 2.0, ""V"": 2.0, ""P"": 3.0, ""O"": 15.0, ""H"": 3.0}",756.705,#556B2F,monoclinic,{},1.0
Niigataite,CaSrAl3[Si2O7][SiO4]O(OH),"{""Ca"": 1.0, ""Sr"": 1.0, ""Al"": 3.0, ""Si"": 3.0, ""O"": 13.0, ""H"": 1.0}",501.894,#FFFFFF,monoclinic,{40},319.0
Nikischerite,Fe2+6Al3(OH)18[Na(H2O)6](SO4)2·6H2O,"{""Fe"": 6.0, ""Al"": 3.0, ""O"": 38.0, ""H"": 42.0, ""Na"": 1.0, ""S"": 2.0}",1153.424,#556B2F,hexagonal,{47},1998.0
Nikmelnikovite,Ca12Fe2+Fe3+3Al3(SiO4)6(OH)20,"{""Ca"": 12.0, ""Fe"": 4.0, ""Al"": 3.0, ""Si"": 6.0, ""O"": 44.0, ""H"": 20.0}",1677.888,#556B2F,hexagonal,{47},1998.0
Niningerite,MgS,"{""Mg"": 1.0, ""S"": 1.0}",56.365,#A9A9A9,cubic,"{4,5}",141.0
Niobocarbide,NbC,"{""Nb"": 1.0, ""C"": 1.0}",104.917,#FFFFFF,cubic,{26},250.0
Nioboheftetjernite,ScNbO4,"{""Sc"": 1.0, ""Nb"": 1.0, ""O"": 4.0}",201.858,#FFFFFF,monoclinic,{34},564.0
Niocalite,Ca7Nb(Si2O7)2O3F,"{""Ca"": 7.0, ""Nb"": 1.0, ""Si"": 4.0, ""O"": 17.0, ""F"": 1.0}",776.773,#FFFFFF,monoclinic,"{35,36}",1017.0
Nipalarsite,Ni8Pd3As4,"{""Ni"": 8.0, ""Pd"": 3.0, ""As"": 4.0}",1088.492,#7FFF00,cubic,{33},797.0
Nipeiite-(Ce),Ce9Fe3+(SiO4)6[SiO3(OH)](OH)3,"{""Ce"": 9.0, ""Fe"": 1.0, ""Si"": 7.0, ""O"": 31.0, ""H"": 4.0}",2013.521,#556B2F,hexagonal,{},1.0
Nisbite,NiSb2,"{""Ni"": 1.0, ""Sb"": 2.0}",302.213,#7FFF00,orthorhombic,{33},797.0
Nishanbaevite,KAl2O(AsO4)(SO4),"{""K"": 1.0, ""Al"": 2.0, ""O"": 9.0, ""As"": 1.0, ""S"": 1.0}",344.035,#FFFFFF,orthorhombic,{45},424.0
Nissonite,Cu2Mg2(PO4)2(OH)2·5H2O,"{""Cu"": 2.0, ""Mg"": 2.0, ""P"": 2.0, ""O"": 15.0, ""H"": 12.0}",489.731,#FFFFFF,monoclinic,{47},1998.0
Niter,K(NO3),"{""K"": 1.0, ""N"": 1.0, ""O"": 3.0}",101.102,#FFFFFF,hexagonal,"{48,52,53}",260.0
Nitratine,Na(NO3),"{""Na"": 1.0, ""N"": 1.0, ""O"": 3.0}",84.994,#FFFFFF,hexagonal,"{14,21,25,53}",467.0
Nitrobarite,Ba(NO3)2,"{""Ba"": 1.0, ""N"": 2.0, ""O"": 6.0}",261.338,#FFFFFF,cubic,"{25,56,57}",402.0
Nitrocalcite,Ca(NO3)2·4H2O,"{""Ca"": 1.0, ""N"": 2.0, ""O"": 10.0, ""H"": 8.0}",236.146,#FFFFFF,monoclinic,"{48,52}",143.0
Nitromagnesite,Mg(NO3)2·6H2O,"{""Mg"": 1.0, ""N"": 2.0, ""O"": 12.0, ""H"": 12.0}",256.403,#FFFFFF,monoclinic,{52},72.0
Nitroplumbite,[Pb4(OH)4](NO3)4,"{""Pb"": 4.0, ""O"": 16.0, ""H"": 4.0, ""N"": 4.0}",1144.844,#FFFFFF,monoclinic,{53},117.0
Nitscheite,(NH4)2[(UO2)2(SO4)3(H2O)2]·3H2O,"{""N"": 2.0, ""H"": 18.0, ""U"": 2.0, ""O"": 21.0, ""S"": 3.0}",954.377,#FFFFFF,monoclinic,"{47,53}",2115.0
Niveolanite,NaBe(CO3)(OH)·2H2O,"{""Na"": 1.0, ""Be"": 1.0, ""C"": 1.0, ""O"": 6.0, ""H"": 5.0}",145.0472,#FFFFFF,tetragonal,{35},726.0
Nixonite,Na2Ti6O13,"{""Na"": 2.0, ""Ti"": 6.0, ""O"": 13.0}",541.169,#FFFFFF,monoclinic,"{35,41}",742.0
Nobleite,CaB6O9(OH)2·3H2O,"{""Ca"": 1.0, ""B"": 6.0, ""O"": 14.0, ""H"": 8.0}",336.988,#FFFFFF,monoclinic,"{25,47}",2208.0
Nolanite,V3+4Fe3+O7(OH),"{""V"": 4.0, ""Fe"": 1.0, ""O"": 8.0, ""H"": 1.0}",388.613,#556B2F,hexagonal,{33},797.0
Nollmotzite,Mg[U5+(U6+O2)2O4F3]·4H2O,"{""Mg"": 1.0, ""U"": 3.0, ""O"": 12.0, ""F"": 3.0, ""H"": 8.0}",995.441,#FFFFFF,monoclinic,{47},1998.0
Noonkanbahite,NaKBaTi2(Si4O12)O2,"{""Na"": 1.0, ""K"": 1.0, ""Ba"": 1.0, ""Ti"": 2.0, ""Si"": 4.0, ""O"": 14.0}",631.478,#FFFFFF,orthorhombic,{7},123.0
Norbergite,Mg3(SiO4)F2,"{""Mg"": 3.0, ""Si"": 1.0, ""O"": 4.0, ""F"": 2.0}",202.992,#FFFFFF,orthorhombic,"{7,31,36,40,50,54}",1596.0
Nordstrandite,Al(OH)3,"{""Al"": 1.0, ""O"": 3.0, ""H"": 3.0}",78.003,#FFFFFF,triclinic,{47},1998.0
Norsethite,BaMg(CO3)2,"{""Ba"": 1.0, ""Mg"": 1.0, ""C"": 2.0, ""O"": 6.0}",281.651,#FFFFFF,hexagonal,"{21,24,32,36,47,56}",2997.0
Northstarite,Pb6(Te4+O3)5(S6+O3S2-),"{""Pb"": 6.0, ""Te"": 5.0, ""O"": 18.0, ""S"": 2.0}",2233.302,#FFFFFF,hexagonal,{47},1998.0
Northupite,Na3Mg(CO3)2Cl,"{""Na"": 3.0, ""Mg"": 1.0, ""C"": 2.0, ""O"": 6.0, ""Cl"": 1.0}",248.741,#FFFFFF,cubic,"{24,25}",284.0
Nosean,Na8(Si6Al6)O24(SO4)·H2O,"{""Na"": 8.0, ""Si"": 6.0, ""Al"": 6.0, ""O"": 29.0, ""S"": 1.0, ""H"": 2.0}",1012.369,#FFFFFF,cubic,"{9,35,45}",1277.0
Novacekite,Mg(UO2)2(AsO4)2·10H2O,"{""Mg"": 1.0, ""U"": 2.0, ""O"": 22.0, ""As"": 2.0, ""H"": 20.0}",1022.347,#FFFFFF,monoclinic,{47},1998.0
Novgorodovaite,Ca2(C2O4)Cl2·2H2O,"{""Ca"": 2.0, ""C"": 2.0, ""O"": 6.0, ""Cl"": 2.0, ""H"": 4.0}",275.104,#FFFFFF,monoclinic,{25},210.0
Novikovite,(NH4)4Mo6+2Mo5+2O8(SO4)5,"{""N"": 4.0, ""H"": 16.0, ""Mo"": 4.0, ""O"": 28.0, ""S"": 5.0}",1064.228,#FFFFFF,monoclinic,{},1.0
Novodneprite,AuPb3,"{""Au"": 1.0, ""Pb"": 3.0}",818.57,#FFD700,unknown,{33},797.0
Novograblenovite,(NH4)MgCl3·6H2O,"{""N"": 1.0, ""H"": 16.0, ""Mg"": 1.0, ""Cl"": 3.0, ""O"": 6.0}",256.784,#FFFFFF,monoclinic,{45},424.0
Nullaginite,Ni2(CO3)(OH)2,"{""Ni"": 2.0, ""C"": 1.0, ""O"": 5.0, ""H"": 2.0}",211.408,#FFFFFF,monoclinic,"{7,13,47}",2188.0
Numanoite,Ca4CuB4O6(OH)6(CO3)2,"{""Ca"": 4.0, ""Cu"": 1.0, ""B"": 4.0, ""O"": 18.0, ""H"": 6.0, ""C"": 2.0}",585.15,#FFFFFF,monoclinic,{23},398.0
Nuragheite,Th(MoO4)2·H2O,"{""Th"": 1.0, ""Mo"": 2.0, ""O"": 9.0, ""H"": 2.0}",569.947,#FFFFFF,monoclinic,{22},247.0
Nuwaite,Ni6GeS2,"{""Ni"": 6.0, ""Ge"": 1.0, ""S"": 2.0}",488.908,#A9A9A9,tetragonal,{6},205.0
Nyboite,NaNa2(Mg3Al2)(Si7Al)O22(OH)2,"{""Na"": 3.0, ""Mg"": 3.0, ""Al"": 3.0, ""Si"": 7.0, ""O"": 24.0, ""H"": 2.0}",805.418,#FFFFFF,monoclinic,"{17,35,36}",1068.0
Nyerereite,Na2Ca(CO3)2,"{""Na"": 2.0, ""Ca"": 1.0, ""C"": 2.0, ""O"": 6.0}",206.074,#FFFFFF,hexagonal,"{9,36}",418.0
Oberthurite,Rh3Ni32S32,"{""Rh"": 3.0, ""Ni"": 32.0, ""S"": 32.0}",3212.826,#A9A9A9,cubic,{12},129.0
Oberwolfachite,SrFe3+3(AsO4)(SO4)(OH)6,"{""Sr"": 1.0, ""Fe"": 3.0, ""As"": 1.0, ""O"": 14.0, ""S"": 1.0, ""H"": 6.0}",592.171,#556B2F,hexagonal,{47},1998.0
Oboniobite,Mg4Nb2O9,"{""Mg"": 4.0, ""Nb"": 2.0, ""O"": 9.0}",427.023,#FFFFFF,hexagonal,{},1.0
Obradovicite-KCu,[K2(H2O)17Cu(H2O)6][Mo8As2Fe3+3O34(OH)3],"{""K"": 2.0, ""H"": 49.0, ""O"": 60.0, ""Cu"": 1.0, ""Mo"": 8.0, ""As"": 2.0, ""Fe"": 3.0}",2236.053,#556B2F,orthorhombic,{47},1998.0
Obradovicite-NaCu,[Na2(H2O)17Cu(H2O)6][Mo8As2Fe3+3O34(OH)3],"{""Na"": 2.0, ""H"": 49.0, ""O"": 60.0, ""Cu"": 1.0, ""Mo"": 8.0, ""As"": 2.0, ""Fe"": 3.0}",2203.837,#556B2F,orthorhombic,{47},1998.0
Obradovicite-NaNa,[Na2(H2O)16Na(H2O)6][Mo8As2Fe3+3O33(OH)4],"{""Na"": 3.0, ""H"": 48.0, ""O"": 59.0, ""Mo"": 8.0, ""As"": 2.0, ""Fe"": 3.0}",2146.274,#556B2F,orthorhombic,{47},1998.0
Odigitriaite,CsNa5Ca5[Si14B2O38]F2,"{""Cs"": 1.0, ""Na"": 5.0, ""Ca"": 5.0, ""Si"": 14.0, ""B"": 2.0, ""O"": 38.0, ""F"": 2.0}",1509.018,#FFFFFF,monoclinic,{35},726.0
Odintsovite,K2Na4Ca3Ti2Be4Si12O38,"{""K"": 2.0, ""Na"": 4.0, ""Ca"": 3.0, ""Ti"": 2.0, ""Be"": 4.0, ""Si"": 12.0, ""O"": 38.0}",1367.1548,#FFFFFF,orthorhombic,{35},726.0
Oenite,CoSbAs,"{""Co"": 1.0, ""Sb"": 1.0, ""As"": 1.0}",255.615,#4169E1,orthorhombic,{33},797.0
Offretite,KCaMg(Si13Al5)O36·15H2O,"{""K"": 1.0, ""Ca"": 1.0, ""Mg"": 1.0, ""Si"": 13.0, ""Al"": 5.0, ""O"": 51.0, ""H"": 30.0}",1449.685,#FFFFFF,hexagonal,{10},107.0
Ognitite,NiBiTe,"{""Ni"": 1.0, ""Bi"": 1.0, ""Te"": 1.0}",395.273,#7FFF00,hexagonal,{37},135.0
Okayamalite,Ca2B2SiO7,"{""Ca"": 2.0, ""B"": 2.0, ""Si"": 1.0, ""O"": 7.0}",241.854,#FFFFFF,tetragonal,{23},398.0
Okenite,Ca10Si18O46·18H2O,"{""Ca"": 10.0, ""Si"": 18.0, ""O"": 64.0, ""H"": 36.0}",1966.534,#FFFFFF,triclinic,"{47,51}",2126.0
Okieite,Mg3[V10O28]·28H2O,"{""Mg"": 3.0, ""V"": 10.0, ""O"": 56.0, ""H"": 56.0}",1534.727,#FFFFFF,triclinic,{47},1998.0
Oldhamite,CaS,"{""Ca"": 1.0, ""S"": 1.0}",72.138,#A9A9A9,cubic,"{1,4,5,50,51,54,56}",941.0
Oldsite-(K),K2Fe2+[(UO2)(SO4)2]2(H2O)8,"{""K"": 2.0, ""Fe"": 1.0, ""U"": 2.0, ""O"": 28.0, ""S"": 4.0, ""H"": 16.0}",1202.441,#556B2F,orthorhombic,{47},1998.0
Olekminskite,Sr2(CO3)2,"{""Sr"": 2.0, ""C"": 2.0, ""O"": 6.0}",295.256,#FFFFFF,hexagonal,"{35,36}",1017.0
Olenite,NaAl3Al6(Si6O18)(BO3)3O3(OH),"{""Na"": 1.0, ""Al"": 9.0, ""Si"": 6.0, ""O"": 31.0, ""B"": 3.0, ""H"": 1.0}",963.745,#FFFFFF,hexagonal,"{19,23,26,34,40}",1674.0
Olgafrankite,Ni3Ge,"{""Ni"": 3.0, ""Ge"": 1.0}",248.709,#7FFF00,cubic,{},1.0
Olivenite,Cu2(AsO4)(OH),"{""Cu"": 2.0, ""As"": 1.0, ""O"": 5.0, ""H"": 1.0}",283.017,#FFFFFF,orthorhombic,{47},1998.0
Olkhonskite,Cr2Ti3O9,"{""Cr"": 2.0, ""Ti"": 3.0, ""O"": 9.0}",391.584,#228B22,monoclinic,{40},319.0
Olmsteadite,KFe2+2NbO2(PO4)2·2H2O,"{""K"": 1.0, ""Fe"": 2.0, ""Nb"": 1.0, ""O"": 12.0, ""P"": 2.0, ""H"": 4.0}",501.662,#556B2F,orthorhombic,{22},247.0
Olsacherite,Pb2(Se6+O4)(SO4),"{""Pb"": 2.0, ""Se"": 1.0, ""O"": 8.0, ""S"": 1.0}",653.423,#FFFFFF,orthorhombic,"{45,47}",2422.0
Olsenite,KFe4(PO4)3,"{""K"": 1.0, ""Fe"": 4.0, ""P"": 3.0, ""O"": 12.0}",547.388,#556B2F,orthorhombic,{},1.0
Olshanskyite,Ca2[B3O3(OH)6]OH·3H2O,"{""Ca"": 2.0, ""B"": 3.0, ""O"": 13.0, ""H"": 13.0}",333.677,#FFFFFF,triclinic,{23},398.0
Olympite,LiNa5(PO4)2,"{""Li"": 1.0, ""Na"": 5.0, ""P"": 2.0, ""O"": 8.0}",311.83,#FFFFFF,orthorhombic,{35},726.0
Omeiite,OsAs2,"{""Os"": 1.0, ""As"": 2.0}",340.074,#808080,orthorhombic,"{6,33}",1002.0
Ominelite,Fe2+Al3O2(BO3)(SiO4),"{""Fe"": 1.0, ""Al"": 3.0, ""O"": 9.0, ""B"": 1.0, ""Si"": 1.0}",319.677,#556B2F,orthorhombic,"{34,40}",883.0
Omongwaite,Na2Ca5(SO4)6·3H2O,"{""Na"": 2.0, ""Ca"": 5.0, ""S"": 6.0, ""O"": 27.0, ""H"": 6.0}",876.751,#FFFFFF,monoclinic,"{47,50,54}",2505.0
Omsite,Ni2Fe3+(OH)6[Sb(OH)6],"{""Ni"": 2.0, ""Fe"": 1.0, ""O"": 12.0, ""H"": 12.0, ""Sb"": 1.0}",499.075,#556B2F,hexagonal,{47},1998.0
Ondrusite,CaCu4(AsO4)2(AsO3OH)2·10H2O,"{""Ca"": 1.0, ""Cu"": 4.0, ""As"": 4.0, ""O"": 26.0, ""H"": 22.0}",1032.1,#FFFFFF,triclinic,"{32,47}",2410.0
Onoratoite,Sb8O11Cl2,"{""Sb"": 8.0, ""O"": 11.0, ""Cl"": 2.0}",1220.969,#A9A9A9,monoclinic,"{47,57}",2047.0
Ootannite,Th4+2W6+4O16·5H2O,"{""Th"": 2.0, ""W"": 4.0, ""O"": 21.0, ""H"": 10.0}",1545.499,#FFFFFF,monoclinic,{},1.0
Oppenheimerite,Na2(UO2)(SO4)2·3H2O,"{""Na"": 2.0, ""U"": 1.0, ""O"": 13.0, ""S"": 2.0, ""H"": 6.0}",562.165,#FFFFFF,triclinic,"{47,55}",2262.0
Oregonite,FeNi2As2,"{""Fe"": 1.0, ""Ni"": 2.0, ""As"": 2.0}",323.075,#7FFF00,hexagonal,"{26,33}",1047.0
Oreillyite,Cr2N,"{""Cr"": 2.0, ""N"": 1.0}",117.999,#228B22,hexagonal,{51},128.0
Orishchinite,Ni2P,"{""Ni"": 2.0, ""P"": 1.0}",148.36,#7FFF00,orthorhombic,{51},128.0
Orlandiite,Pb3Cl4(Se4+O3)·H2O,"{""Pb"": 3.0, ""Cl"": 4.0, ""Se"": 1.0, ""O"": 4.0, ""H"": 2.0}",908.383,#FFFFFF,triclinic,{47},1998.0