name,formula,elements,density,color,crystal,pm_ids,gacha_weight
Bainbridgeite-(NdCe),Na2Ba2NdCe(CO3)6·3H2O,"{""Na"": 2.0, ""Ba"": 2.0, ""Nd"": 1.0, ""Ce"": 1.0, ""C"": 6.0, ""O"": 21.0, ""H"": 6.0}",1019.093,#FFFFFF,triclinic,{},1.0
Bainbridgeite-(YCe),Na2Ba2YCe(CO3)6·3H2O,"{""Na"": 2.0, ""Ba"": 2.0, ""Y"": 1.0, ""Ce"": 1.0, ""C"": 6.0, ""O"": 21.0, ""H"": 6.0}",963.759,#FFFFFF,triclinic,{35},726.0
Bairdite,Pb2Cu2+4Te6+2O10(OH)2(SO4)·H2O,"{""Pb"": 2.0, ""Cu"": 4.0, ""Te"": 2.0, ""O"": 17.0, ""H"": 4.0, ""S"": 1.0}",1231.859,#FFFFFF,monoclinic,{47},1998.0
Bakakinite,Ca2V2O7,"{""Ca"": 2.0, ""V"": 2.0, ""O"": 7.0}",294.033,#FFFFFF,triclinic,{},1.0
Bakhchisaraitsevite,Na2Mg5(PO4)4·7H2O,"{""Na"": 2.0, ""Mg"": 5.0, ""P"": 4.0, ""O"": 23.0, ""H"": 14.0}",673.49,#FFFFFF,monoclinic,"{23,36,49,50,54}",1273.0
Baksanite,Bi6Te2S3,"{""Bi"": 6.0, ""Te"": 2.0, ""S"": 3.0}",1605.26,#A9A9A9,hexagonal,{31},356.0
Balangeroite,Mg21Si8O27(OH)20,"{""Mg"": 21.0, ""Si"": 8.0, ""O"": 47.0, ""H"": 20.0}",1507.198,#FFFFFF,triclinic,"{13,38}",175.0
Balestraite,KLi2V5+Si4O12,"{""K"": 1.0, ""Li"": 2.0, ""V"": 1.0, ""Si"": 4.0, ""O"": 12.0}",408.248,#FFFFFF,monoclinic,{32},412.0
Baliczunicite,Bi2O(SO4)2,"{""Bi"": 2.0, ""O"": 9.0, ""S"": 2.0}",626.071,#FFFF00,triclinic,{45},424.0
Balipholite,LiBaMg2Al3(Si2O6)2(OH)8,"{""Li"": 1.0, ""Ba"": 1.0, ""Mg"": 2.0, ""Al"": 3.0, ""Si"": 4.0, ""O"": 20.0, ""H"": 8.0}",714.21,#FFFFFF,orthorhombic,{32},412.0
Balkanite,Ag5Cu9HgS8,"{""Ag"": 5.0, ""Cu"": 9.0, ""Hg"": 1.0, ""S"": 8.0}",1568.334,#A9A9A9,monoclinic,{33},797.0
Balyakinite,Cu2+(Te4+O3),"{""Cu"": 1.0, ""Te"": 1.0, ""O"": 3.0}",239.143,#00BFFF,orthorhombic,{47},1998.0
Bamfordite,Fe3+Mo2O6(OH)3·H2O,"{""Fe"": 1.0, ""Mo"": 2.0, ""O"": 10.0, ""H"": 5.0}",412.775,#556B2F,triclinic,{47},1998.0
Banalsite,Na2BaAl4Si4O16,"{""Na"": 2.0, ""Ba"": 1.0, ""Al"": 4.0, ""Si"": 4.0, ""O"": 16.0}",659.562,#FFFFFF,orthorhombic,"{23,32,35,36}",1827.0
Bandylite,CuB(OH)4Cl,"{""Cu"": 1.0, ""B"": 1.0, ""O"": 4.0, ""H"": 4.0, ""Cl"": 1.0}",177.834,#FFFFFF,tetragonal,{47},1998.0
Bararite,(NH4)2SiF6,"{""N"": 2.0, ""H"": 8.0, ""Si"": 1.0, ""F"": 6.0}",178.151,#FFFFFF,hexagonal,"{45,50,54}",931.0
Baratovite,KLi3Ca7Ti2(SiO3)12F2,"{""K"": 1.0, ""Li"": 3.0, ""Ca"": 7.0, ""Ti"": 2.0, ""Si"": 12.0, ""O"": 36.0, ""F"": 2.0}",1387.178,#FFFFFF,monoclinic,{23},398.0
Barberiite,(NH4)BF4,"{""N"": 1.0, ""H"": 4.0, ""B"": 1.0, ""F"": 4.0}",104.841,#FFFFFF,orthorhombic,"{45,50,54}",931.0
Barbosalite,Fe2+Fe3+2(PO4)2(OH)2,"{""Fe"": 3.0, ""P"": 2.0, ""O"": 10.0, ""H"": 2.0}",391.489,#556B2F,monoclinic,"{34,47}",2562.0
Barentsite,Na7Al(HCO3)2(CO3)2F4,"{""Na"": 7.0, ""Al"": 1.0, ""H"": 2.0, ""C"": 4.0, ""O"": 12.0, ""F"": 4.0}",505.952,#FFFFFF,triclinic,"{23,35}",1124.0
Barikaite,Ag3Pb10(Sb8As11)Σ19S40,"{""Ag"": 3.0, ""Pb"": 10.0, ""Sb"": 152.0, ""As"": 209.0, ""S"": 40.0}",37844.228,#708090,monoclinic,{33},797.0
Barioferrite,BaFe3+12O19,"{""Ba"": 1.0, ""Fe"": 12.0, ""O"": 19.0}",1111.451,#8B4513,hexagonal,"{51,54}",362.0
Bariolakargiite,BaZrO3,"{""Ba"": 1.0, ""Zr"": 1.0, ""O"": 3.0}",276.551,#FFFFFF,cubic,{},1.0
Bario-orthojoaquinite,Ba4Fe2+2Ti2O2(SiO3)8·H2O,"{""Ba"": 4.0, ""Fe"": 2.0, ""Ti"": 2.0, ""O"": 27.0, ""Si"": 8.0, ""H"": 2.0}",1415.413,#556B2F,orthorhombic,{40},319.0
Barioperovskite,BaTiO3,"{""Ba"": 1.0, ""Ti"": 1.0, ""O"": 3.0}",233.194,#FFFFFF,orthorhombic,{39},70.0
Bariosincosite,Ba(VO)2(PO4)2·4H2O,"{""Ba"": 1.0, ""V"": 2.0, ""O"": 14.0, ""P"": 2.0, ""H"": 8.0}",533.212,#FFFFFF,monoclinic,"{21,47}",2077.0
Barlowite,Cu4BrF(OH)6,"{""Cu"": 4.0, ""Br"": 1.0, ""F"": 1.0, ""O"": 6.0, ""H"": 6.0}",455.128,#FFFFFF,hexagonal,{47},1998.0
Barnesite,Na2V5+6O16·3H2O,"{""Na"": 2.0, ""V"": 6.0, ""O"": 19.0, ""H"": 6.0}",661.661,#FFFFFF,monoclinic,"{47,56}",2141.0
Barrerite,Na2(Si7Al2)O18·6H2O,"{""Na"": 2.0, ""Si"": 7.0, ""Al"": 2.0, ""O"": 24.0, ""H"": 12.0}",692.611,#FFFFFF,orthorhombic,{10},107.0
Barstowite,Pb4(CO3)Cl6·H2O,"{""Pb"": 4.0, ""C"": 1.0, ""O"": 4.0, ""Cl"": 6.0, ""H"": 2.0}",1119.523,#FFFFFF,monoclinic,"{23,56,57}",590.0
Bartelkeite,PbFe2+Ge(Ge2O7)(OH)2·H2O,"{""Pb"": 1.0, ""Fe"": 1.0, ""Ge"": 3.0, ""O"": 10.0, ""H"": 4.0}",644.957,#556B2F,monoclinic,{47},1998.0
Bartonite,K6Fe20S26S,"{""K"": 6.0, ""Fe"": 20.0, ""S"": 27.0}",2217.108,#DAA520,tetragonal,"{33,35}",1523.0
Barylite,BaBe2Si2O7,"{""Ba"": 1.0, ""Be"": 2.0, ""Si"": 2.0, ""O"": 7.0}",323.5174,#FFFFFF,monoclinic,"{19,23,32,34}",1517.0
Baryte,Ba(SO4),"{""Ba"": 1.0, ""S"": 1.0, ""O"": 4.0}",233.386,#FFFF00,orthorhombic,"{6,14,17,20,24,25,32,33,36,45,46,47,49,50,53,54,55}",5585.0
Barytocalcite,BaCa(CO3)2,"{""Ba"": 1.0, ""Ca"": 1.0, ""C"": 2.0, ""O"": 6.0}",297.424,#FFFFFF,monoclinic,"{23,36}",689.0
Barytolamprophyllite,(BaK)Ti2Na3Ti(Si2O7)2O2(OH)2,"{""Ba"": 1.0, ""K"": 1.0, ""Ti"": 3.0, ""Na"": 3.0, ""Si"": 4.0, ""O"": 18.0, ""H"": 2.0}",791.337,#FFFFFF,monoclinic,{35},726.0
Bassetite,Fe2+(UO2)2(PO4)2(H2O)10,"{""Fe"": 1.0, ""U"": 2.0, ""O"": 22.0, ""P"": 2.0, ""H"": 20.0}",965.991,#556B2F,tetragonal,{47},1998.0
Bassoite,SrV4+3O7·4H2O,"{""Sr"": 1.0, ""V"": 3.0, ""O"": 11.0, ""H"": 8.0}",424.499,#FFFFFF,monoclinic,{47},1998.0
Bastnasite-(Ce),Ce(CO3)F,"{""Ce"": 1.0, ""C"": 1.0, ""O"": 3.0, ""F"": 1.0}",219.126,#FFFFFF,hexagonal,"{19,23,26,31,34,35,36,40,48}",3118.0
Bastnasite-(La),La(CO3)F,"{""La"": 1.0, ""C"": 1.0, ""O"": 3.0, ""F"": 1.0}",217.916,#FFFFFF,hexagonal,{36},291.0
Bastnasite-(Nd),Nd(CO3)F,"{""Nd"": 1.0, ""C"": 1.0, ""O"": 3.0, ""F"": 1.0}",223.246,#FFFFFF,hexagonal,"{34,35,36}",1581.0
Bastnasite-(Y),Y(CO3)F,"{""Y"": 1.0, ""C"": 1.0, ""O"": 3.0, ""F"": 1.0}",167.912,#FFFFFF,hexagonal,"{34,35}",1290.0
Batiferrite,BaTi2Fe3+8Fe2+2O19,"{""Ba"": 1.0, ""Ti"": 2.0, ""Fe"": 10.0, ""O"": 19.0}",1095.495,#556B2F,hexagonal,{47},1998.0
Batisite,Na2BaTi2O2(Si2O6)2,"{""Na"": 2.0, ""Ba"": 1.0, ""Ti"": 2.0, ""O"": 14.0, ""Si"": 4.0}",615.37,#FFFFFF,orthorhombic,"{7,35}",849.0
Batoniite,Al8(SO4)5(OH)14(H2O)18·5H2O,"{""Al"": 8.0, ""S"": 5.0, ""O"": 57.0, ""H"": 60.0}",1348.579,#FFFFFF,triclinic,{},1.0
Baumhauerite,Pb12As16S36,"{""Pb"": 12.0, ""As"": 16.0, ""S"": 36.0}",4839.312,#708090,triclinic,{33},797.0
Baumhauerite II,Pb3As4S9,"{""Pb"": 3.0, ""As"": 4.0, ""S"": 9.0}",1209.828,#708090,triclinic,{33},797.0
Baumstarkite,Ag3Sb3S6,"{""Ag"": 3.0, ""Sb"": 3.0, ""S"": 6.0}",881.25,#A9A9A9,triclinic,{33},797.0
Bauranoite,BaU2O7·4-5H2O,"{""Ba"": 1.0, ""U"": 2.0, ""O"": 12.0, ""H"": 10.0}",815.458,#FFFFFF,unknown,{47},1998.0
Bavsiite,Ba2V2O2[Si4O12],"{""Ba"": 2.0, ""V"": 2.0, ""O"": 14.0, ""Si"": 4.0}",712.87,#FFFFFF,tetragonal,{32},412.0
Bayanoboite-(Y),Ba2Y(CO3)2F3,"{""Ba"": 2.0, ""Y"": 1.0, ""C"": 2.0, ""O"": 6.0, ""F"": 3.0}",540.576,#FFFFFF,orthorhombic,{},1.0
Bayerite,Al(OH)3,"{""Al"": 1.0, ""O"": 3.0, ""H"": 3.0}",78.003,#FFFFFF,monoclinic,"{47,48,51}",2197.0
Bayldonite,Cu3PbO(AsO3OH)2(OH)2,"{""Cu"": 3.0, ""Pb"": 1.0, ""O"": 11.0, ""As"": 2.0, ""H"": 4.0}",727.703,#FFFFFF,monoclinic,{47},1998.0
Bayleyite,Mg2(UO2)(CO3)3·18H2O,"{""Mg"": 2.0, ""U"": 1.0, ""O"": 29.0, ""C"": 3.0, ""H"": 36.0}",822.932,#FFFFFF,monoclinic,"{47,55}",2262.0
Baylissite,K2Mg(CO3)2·4H2O,"{""K"": 2.0, ""Mg"": 1.0, ""C"": 2.0, ""O"": 10.0, ""H"": 8.0}",294.577,#FFFFFF,monoclinic,"{47,55}",2262.0
Bazhenovite,Ca8S5(S2O3)(OH)12·20H2O,"{""Ca"": 8.0, ""S"": 7.0, ""O"": 35.0, ""H"": 52.0}",1157.425,#FFFFFF,monoclinic,{54},234.0
Bazirite,BaZrSi3O9,"{""Ba"": 1.0, ""Zr"": 1.0, ""Si"": 3.0, ""O"": 9.0}",456.8,#FFFFFF,hexagonal,"{19,35}",869.0
Bearsite,Be2(AsO4)(OH)·4H2O,"{""Be"": 2.0, ""As"": 1.0, ""O"": 9.0, ""H"": 9.0}",246.0094,#FFFFFF,monoclinic,{47},1998.0
Bearthite,Ca2Al(PO4)2(OH),"{""Ca"": 2.0, ""Al"": 1.0, ""P"": 2.0, ""O"": 9.0, ""H"": 1.0}",314.085,#FFFFFF,monoclinic,"{39,40}",389.0
Beaverite-(Cu),Pb(Fe3+2Cu)(SO4)2(OH)6,"{""Pb"": 1.0, ""Fe"": 2.0, ""Cu"": 1.0, ""S"": 2.0, ""O"": 14.0, ""H"": 6.0}",676.59,#556B2F,hexagonal,{47},1998.0
Beckettite,Ca2V6Al6O20,"{""Ca"": 2.0, ""V"": 6.0, ""Al"": 6.0, ""O"": 20.0}",867.68,#FFFFFF,triclinic,{6},205.0
Becquerelite,Ca(UO2)6O4(OH)6·8H2O,"{""Ca"": 1.0, ""U"": 6.0, ""O"": 30.0, ""H"": 22.0}",1970.404,#FFFFFF,hexagonal,"{27,34,47}",2571.0
Beershevaite,CaFe3+3(PO4)3O,"{""Ca"": 1.0, ""Fe"": 3.0, ""P"": 3.0, ""O"": 13.0}",508.522,#556B2F,monoclinic,{51},128.0
Behierite,Ta(BO4),"{""Ta"": 1.0, ""B"": 1.0, ""O"": 4.0}",255.756,#FFFFFF,tetragonal,{34},564.0
Behoite,Be(OH)2,"{""Be"": 1.0, ""O"": 2.0, ""H"": 2.0}",43.0262,#FFFFFF,orthorhombic,"{9,19,34,35}",1560.0
Behounekite,U(SO4)2(H2O)4,"{""U"": 1.0, ""S"": 2.0, ""O"": 12.0, ""H"": 8.0}",502.202,#FFFFFF,orthorhombic,"{47,55}",2262.0
Belakovskiite,Na7(UO2)(SO4)4(SO3OH)(H2O)3,"{""Na"": 7.0, ""U"": 1.0, ""O"": 25.0, ""S"": 5.0, ""H"": 7.0}",966.291,#FFFFFF,triclinic,"{47,55}",2262.0
Belendorffite,Cu7Hg6,"{""Cu"": 7.0, ""Hg"": 6.0}",1648.362,#00BFFF,hexagonal,{33},797.0
Belkovite,Ba3Nb6(Si2O7)2O12,"{""Ba"": 3.0, ""Nb"": 6.0, ""Si"": 4.0, ""O"": 26.0}",1497.74,#FFFFFF,hexagonal,"{23,36}",689.0
Bellidoite,Cu2Se,"{""Cu"": 2.0, ""Se"": 1.0}",206.063,#00BFFF,tetragonal,{33},797.0
Bellingerite,Cu3(IO3)6·2H2O,"{""Cu"": 3.0, ""I"": 6.0, ""O"": 20.0, ""H"": 4.0}",1276.05,#FFFFFF,triclinic,{47},1998.0
Belloite,Cu(OH)Cl,"{""Cu"": 1.0, ""O"": 1.0, ""H"": 1.0, ""Cl"": 1.0}",116.003,#FFFFFF,monoclinic,"{45,47,55}",2686.0
Belomarinaite,KNa(SO4),"{""K"": 1.0, ""Na"": 1.0, ""S"": 1.0, ""O"": 4.0}",158.144,#FFFFFF,hexagonal,{45},424.0
Belovite-(Ce),NaCeSr3(PO4)3F,"{""Na"": 1.0, ""Ce"": 1.0, ""Sr"": 3.0, ""P"": 3.0, ""O"": 12.0, ""F"": 1.0}",729.878,#FFFFFF,hexagonal,"{23,36}",689.0
Belovite-(La),NaLaSr3(PO4)3F,"{""Na"": 1.0, ""La"": 1.0, ""Sr"": 3.0, ""P"": 3.0, ""O"": 12.0, ""F"": 1.0}",728.668,#FFFFFF,hexagonal,"{23,36}",689.0
Benauite,SrFe3+3(PO4)(PO3OH)(OH)6,"{""Sr"": 1.0, ""Fe"": 3.0, ""P"": 2.0, ""O"": 14.0, ""H"": 7.0}",548.145,#556B2F,hexagonal,"{23,32,47}",2808.0
Bendadaite,Fe2+Fe3+2(AsO4)2(OH)2·4H2O,"{""Fe"": 3.0, ""As"": 2.0, ""O"": 14.0, ""H"": 10.0}",551.445,#556B2F,monoclinic,{47},1998.0
Benitoite,BaTiSi3O9,"{""Ba"": 1.0, ""Ti"": 1.0, ""Si"": 3.0, ""O"": 9.0}",413.443,#FFFFFF,hexagonal,"{19,23,35}",1267.0
Benjaminite,Ag3Bi7S12,"{""Ag"": 3.0, ""Bi"": 7.0, ""S"": 12.0}",2171.19,#A9A9A9,monoclinic,{33},797.0
Bennesherite,Ba2Fe2+Si2O7,"{""Ba"": 2.0, ""Fe"": 1.0, ""Si"": 2.0, ""O"": 7.0}",498.668,#556B2F,tetragonal,{51},128.0
Benstonite,Ba6Ca6Mg(CO3)13,"{""Ba"": 6.0, ""Ca"": 6.0, ""Mg"": 1.0, ""C"": 13.0, ""O"": 39.0}",1868.857,#FFFFFF,hexagonal,"{32,36}",703.0
Bentorite,Ca6Cr2(SO4)3(OH)12·26H2O,"{""Ca"": 6.0, ""Cr"": 2.0, ""S"": 3.0, ""O"": 50.0, ""H"": 64.0}",1305.102,#FFFFFF,hexagonal,"{31,51}",484.0
Beraunite,Fe3+6(PO4)4O(OH)4·6H2O,"{""Fe"": 6.0, ""P"": 4.0, ""O"": 27.0, ""H"": 16.0}",907.067,#556B2F,monoclinic,"{21,47,53}",2194.0
Berborite,Be2(BO3)(OH)·H2O,"{""Be"": 2.0, ""B"": 1.0, ""O"": 5.0, ""H"": 3.0}",111.8534,#FFFFFF,hexagonal,"{31,47}",2354.0
Berdesinskiite,V3+2TiO5,"{""V"": 2.0, ""Ti"": 1.0, ""O"": 5.0}",229.746,#FFFFFF,monoclinic,{53},117.0
Berezanskite,KTi2Li3Si12O30,"{""K"": 1.0, ""Ti"": 2.0, ""Li"": 3.0, ""Si"": 12.0, ""O"": 30.0}",972.642,#FFFFFF,hexagonal,{35},726.0
Bergenite,Ca2Ba4(UO2)9O6(PO4)6·16H2O,"{""Ca"": 2.0, ""Ba"": 4.0, ""U"": 9.0, ""O"": 64.0, ""P"": 6.0, ""H"": 32.0}",4013.782,#FFFFFF,monoclinic,{47},1998.0
Bergslagite,CaBe(AsO4)(OH),"{""Ca"": 1.0, ""Be"": 1.0, ""As"": 1.0, ""O"": 5.0, ""H"": 1.0}",205.0152,#FFFFFF,monoclinic,"{20,32,46}",509.0
Berlinite,Al(PO4),"{""Al"": 1.0, ""P"": 1.0, ""O"": 4.0}",121.952,#FFFFFF,hexagonal,"{23,47}",2396.0
Bernalite,Fe(OH)3,"{""Fe"": 1.0, ""O"": 3.0, ""H"": 3.0}",106.866,#8B4513,orthorhombic,"{32,47,55}",2674.0
Bernardevansite,Al2(Se4+O3)3·6H2O,"{""Al"": 2.0, ""Se"": 3.0, ""O"": 15.0, ""H"": 12.0}",542.958,#FFFFFF,monoclinic,{47},1998.0
Bernardite,TlAs5S8,"{""Tl"": 1.0, ""As"": 5.0, ""S"": 8.0}",835.47,#FFD700,monoclinic,{33},797.0
Bernarlottiite,Pb12(As10Sb6)S36,"{""Pb"": 12.0, ""As"": 10.0, ""Sb"": 6.0, ""S"": 36.0}",5120.34,#708090,triclinic,{33},797.0
Berndlehmannite,Cu(CrV)S4,"{""Cu"": 1.0, ""Cr"": 1.0, ""V"": 1.0, ""S"": 4.0}",294.724,#A9A9A9,cubic,{},1.0
Berryite,Cu3Ag2Pb3Bi7S16,"{""Cu"": 3.0, ""Ag"": 2.0, ""Pb"": 3.0, ""Bi"": 7.0, ""S"": 16.0}",3003.798,#708090,monoclinic,{33},797.0
Berthierite,FeSb2S4,"{""Fe"": 1.0, ""Sb"": 2.0, ""S"": 4.0}",427.605,#DAA520,orthorhombic,{33},797.0
Bertossaite,Li2CaAl4(PO4)4(OH)4,"{""Li"": 2.0, ""Ca"": 1.0, ""Al"": 4.0, ""P"": 4.0, ""O"": 20.0, ""H"": 4.0}",609.794,#FFFFFF,orthorhombic,{34},564.0
Bertrandite,Be4Si2O7(OH)2,"{""Be"": 4.0, ""Si"": 2.0, ""O"": 9.0, ""H"": 2.0}",238.2258,#FFFFFF,orthorhombic,"{19,34,35}",1433.0
Beryl,Be3Al2Si6O18,"{""Be"": 3.0, ""Al"": 2.0, ""Si"": 6.0, ""O"": 18.0}",537.4926,#FFFFFF,hexagonal,"{19,20,23,34,35,40}",2195.0
Beryllite,Be3(SiO4)(OH)2·H2O,"{""Be"": 3.0, ""Si"": 1.0, ""O"": 7.0, ""H"": 4.0}",171.1466,#FFFFFF,unknown,"{23,35}",1124.0
Beryllocordierite-Na,NaMg4(Al5Be)(AlSi5O18)2·2H2O,"{""Na"": 1.0, ""Mg"": 4.0, ""Al"": 7.0, ""Be"": 1.0, ""Si"": 10.0, ""O"": 38.0, ""H"": 4.0}",1210.9402,#FFFFFF,orthorhombic,{},1.0
Beryllonite,NaBe(PO4),"{""Na"": 1.0, ""Be"": 1.0, ""P"": 1.0, ""O"": 4.0}",126.9722,#FFFFFF,monoclinic,"{34,35,47}",3288.0
Berzeliite,(NaCa2)Mg2(AsO4)3,"{""Na"": 1.0, ""Ca"": 2.0, ""Mg"": 2.0, ""As"": 3.0, ""O"": 12.0}",568.51,#FFFFFF,cubic,{32},412.0
Beshtauite,(NH4)2(UO2)(SO4)2·2H2O,"{""N"": 2.0, ""H"": 12.0, ""U"": 1.0, ""O"": 12.0, ""S"": 2.0}",534.248,#FFFFFF,monoclinic,"{47,53}",2115.0
Betpakdalite-CaCa,[Ca2(H2O)17Ca(H2O)6][Mo6+8As5+2Fe3+3O36(OH)],"{""Ca"": 3.0, ""H"": 47.0, ""O"": 60.0, ""Mo"": 8.0, ""As"": 2.0, ""Fe"": 3.0}",2212.529,#556B2F,monoclinic,{47},1998.0
Betpakdalite-CaMg,[Ca2(H2O)17Mg(H2O)6][Mo6+8As5+2Fe3+3O36(OH)],"{""Ca"": 2.0, ""H"": 47.0, ""O"": 60.0, ""Mg"": 1.0, ""Mo"": 8.0, ""As"": 2.0, ""Fe"": 3.0}",2196.756,#556B2F,monoclinic,{47},1998.0
Betpakdalite-FeFe,[Fe3+2(H2O)15(OH)2Fe3+(H2O)6][Mo8As2Fe3+3O37],"{""Fe"": 6.0, ""H"": 44.0, ""O"": 60.0, ""Mo"": 8.0, ""As"": 2.0}",2256.806,#556B2F,monoclinic,{47},1998.0
Betpakdalite-NaCa,[Na2(H2O)17Ca(H2O)6][Mo6+8As5+2Fe3+3O34(OH)3],"{""Na"": 2.0, ""H"": 49.0, ""O"": 60.0, ""Ca"": 1.0, ""Mo"": 8.0, ""As"": 2.0, ""Fe"": 3.0}",2180.369,#556B2F,monoclinic,{47},1998.0
Betpakdalite-NaNa,[Na2(H2O)16Na(H2O)6][Mo6+8As5+2Fe3+3O33(OH)4],"{""Na"": 3.0, ""H"": 48.0, ""O"": 59.0, ""Mo"": 8.0, ""As"": 2.0, ""Fe"": 3.0}",2146.274,#556B2F,monoclinic,{47},1998.0
Bettertonite,Al6(AsO4)3(OH)9(H2O)5·11H2O,"{""Al"": 6.0, ""As"": 3.0, ""O"": 37.0, ""H"": 41.0}",1019.949,#FFFFFF,monoclinic,{47},1998.0
Betzite,Na6Ca2(Al6Si6O24)Cl4,"{""Na"": 6.0, ""Ca"": 2.0, ""Al"": 6.0, ""Si"": 6.0, ""O"": 24.0, ""Cl"": 4.0}",1074.274,#FFFFFF,hexagonal,{10},107.0
Beudantite,PbFe3+3(AsO4)(SO4)(OH)6,"{""Pb"": 1.0, ""Fe"": 3.0, ""As"": 1.0, ""O"": 14.0, ""S"": 1.0, ""H"": 6.0}",711.751,#556B2F,hexagonal,{47},1998.0
Beyerite,CaBi2O2(CO3)2,"{""Ca"": 1.0, ""Bi"": 2.0, ""O"": 8.0, ""C"": 2.0}",610.052,#FFFFFF,orthorhombic,{47},1998.0
Biagioniite,Tl2SbS2,"{""Tl"": 2.0, ""Sb"": 1.0, ""S"": 2.0}",594.64,#A9A9A9,monoclinic,{33},797.0
Bianchiniite,Ba2(TiV)(As2O5)2OF,"{""Ba"": 2.0, ""Ti"": 1.0, ""V"": 1.0, ""As"": 4.0, ""O"": 11.0, ""F"": 1.0}",868.144,#FFFFFF,tetragonal,{47},1998.0
Bicapite,[KNa2Mg2(H2O)25][H2PV5+12O40(V5+O)2],"{""K"": 1.0, ""Na"": 2.0, ""Mg"": 2.0, ""H"": 52.0, ""O"": 67.0, ""P"": 1.0, ""V"": 14.0}",2002.199,#FFFFFF,tetragonal,"{47,55}",2262.0
Bicchulite,Ca2Al2SiO6(OH)2,"{""Ca"": 2.0, ""Al"": 2.0, ""Si"": 1.0, ""O"": 8.0, ""H"": 2.0}",292.213,#FFFFFF,cubic,"{23,31,51}",882.0
Bideauxite,AgPb2F2Cl3,"{""Ag"": 1.0, ""Pb"": 2.0, ""F"": 2.0, ""Cl"": 3.0}",666.616,#FFFFFF,cubic,{47},1998.0
Bieberite,Co(SO4)·7H2O,"{""Co"": 1.0, ""S"": 1.0, ""O"": 11.0, ""H"": 14.0}",281.094,#FFFFFF,monoclinic,{47},1998.0
Biehlite,Sb3+2MoO6,"{""Sb"": 2.0, ""Mo"": 1.0, ""O"": 6.0}",435.464,#A9A9A9,monoclinic,"{47,57}",2047.0
Bigcreekite,BaSi2O5·4H2O,"{""Ba"": 1.0, ""Si"": 2.0, ""O"": 9.0, ""H"": 8.0}",345.555,#FFFFFF,orthorhombic,{47},1998.0
Bijvoetite-(Y),Y8(UO2)16O8(CO3)16(OH)8·39H2O,"{""Y"": 8.0, ""U"": 16.0, ""O"": 135.0, ""C"": 16.0, ""H"": 86.0}",6958.457,#FFFFFF,monoclinic,{47},1998.0
Bikitaite,LiAlSi2O6·H2O,"{""Li"": 1.0, ""Al"": 1.0, ""Si"": 2.0, ""O"": 7.0, ""H"": 2.0}",204.101,#FFFFFF,triclinic,"{22,34,47}",2809.0
Bilibinskite,PbAu3Cu2Te2,"{""Pb"": 1.0, ""Au"": 3.0, ""Cu"": 2.0, ""Te"": 2.0}",1180.402,#FFFFFF,cubic,{33},797.0
Bilinite,Fe2+Fe3+2(SO4)4·22H2O,"{""Fe"": 3.0, ""S"": 4.0, ""O"": 38.0, ""H"": 44.0}",948.089,#556B2F,monoclinic,"{45,47,50,55}",2959.0
Billietite,Ba(UO2)6O4(OH)6·8H2O,"{""Ba"": 1.0, ""U"": 6.0, ""O"": 30.0, ""H"": 22.0}",2067.656,#FFFFFF,orthorhombic,{47},1998.0
Billingsleyite,Ag7AsS6,"{""Ag"": 7.0, ""As"": 1.0, ""S"": 6.0}",1022.372,#FFD700,cubic,{33},797.0
Billwiseite,Sb3+5Nb3WO18,"{""Sb"": 5.0, ""Nb"": 3.0, ""W"": 1.0, ""O"": 18.0}",1359.34,#FFFFFF,monoclinic,{34},564.0
Bimbowrieite,NaMgFe3+5(PO4)4(OH)6·2H2O,"{""Na"": 1.0, ""Mg"": 1.0, ""Fe"": 5.0, ""P"": 4.0, ""O"": 24.0, ""H"": 10.0}",844.472,#556B2F,monoclinic,"{34,47}",2562.0
Bindheimite,Pb2Sb5+2O7,"{""Pb"": 2.0, ""Sb"": 2.0, ""O"": 7.0}",769.913,#A9A9A9,cubic,{47},1998.0
Biphosphammite,(NH4)H2(PO4),"{""N"": 1.0, ""H"": 6.0, ""P"": 1.0, ""O"": 4.0}",115.025,#FFFFFF,tetragonal,"{47,52}",2070.0
Biraite-(Ce),Ce2Fe2+(Si2O7)(CO3),"{""Ce"": 2.0, ""Fe"": 1.0, ""Si"": 2.0, ""O"": 10.0, ""C"": 1.0}",564.256,#556B2F,monoclinic,{36},291.0
Biraite-(La),La2Fe2+(CO3)(Si2O7),"{""La"": 2.0, ""Fe"": 1.0, ""C"": 1.0, ""O"": 10.0, ""Si"": 2.0}",561.836,#556B2F,monoclinic,{36},291.0
Birchite,Cd2Cu2(PO4)2(SO4)·5H2O,"{""Cd"": 2.0, ""Cu"": 2.0, ""P"": 2.0, ""O"": 17.0, ""S"": 1.0, ""H"": 10.0}",727.983,#FFFFFF,orthorhombic,{47},1998.0
Biringuccite,Na2B5O8(OH)·H2O,"{""Na"": 2.0, ""B"": 5.0, ""O"": 10.0, ""H"": 3.0}",263.044,#FFFFFF,monoclinic,"{47,55,57}",2311.0
Bischofite,MgCl2·6H2O,"{""Mg"": 1.0, ""Cl"": 2.0, ""H"": 12.0, ""O"": 6.0}",203.295,#FFFFFF,monoclinic,"{25,45,47}",2632.0
Bismite,Bi2O3,"{""Bi"": 2.0, ""O"": 3.0}",465.957,#D2B48C,monoclinic,{47},1998.0
Bismoclite,BiOCl,"{""Bi"": 1.0, ""O"": 1.0, ""Cl"": 1.0}",260.429,#D2B48C,tetragonal,"{26,34}",814.0
Bismuth,Bi,"{""Bi"": 1.0}",208.98,#D2B48C,hexagonal,"{33,34,50,54}",1868.0
Bismuthinite,Bi2S3,"{""Bi"": 2.0, ""S"": 3.0}",514.14,#A9A9A9,orthorhombic,"{11,12,33,50,54}",1469.0
Bismutite,Bi2O2(CO3),"{""Bi"": 2.0, ""O"": 5.0, ""C"": 1.0}",509.966,#D2B48C,orthorhombic,"{34,47}",2562.0
Bismutocolumbite,BiNbO4,"{""Bi"": 1.0, ""Nb"": 1.0, ""O"": 4.0}",365.882,#D2B48C,orthorhombic,{34},564.0
Bismutoferrite,Fe3+2Bi(SiO4)2(OH),"{""Fe"": 2.0, ""Bi"": 1.0, ""Si"": 2.0, ""O"": 9.0, ""H"": 1.0}",521.839,#556B2F,monoclinic,"{23,33}",1195.0
Bismutohauchecornite,Ni9Bi2S8,"{""Ni"": 9.0, ""Bi"": 2.0, ""S"": 8.0}",1202.677,#A9A9A9,unknown,{33},797.0
Bismutotantalite,BiTaO4,"{""Bi"": 1.0, ""Ta"": 1.0, ""O"": 4.0}",453.926,#D2B48C,orthorhombic,{34},564.0
Bityite,CaLiAl2(Si2BeAl)O10(OH)2,"{""Ca"": 1.0, ""Li"": 1.0, ""Al"": 3.0, ""Si"": 2.0, ""Be"": 1.0, ""O"": 12.0, ""H"": 2.0}",387.1502,#FFFFFF,monoclinic,"{34,47}",2562.0
Bixbyite-(Fe),Fe3+2O3,"{""Fe"": 2.0, ""O"": 3.0}",159.687,#8B4513,cubic,{10},107.0
Blakeite,Fe3+2(Te4+O3)3 (?),"{""Fe"": 2.0, ""Te"": 3.0, ""O"": 9.0}",638.481,#8B4513,unknown,{47},1998.0
Blatonite,(UO2)(CO3)·H2O,"{""U"": 1.0, ""O"": 6.0, ""C"": 1.0, ""H"": 2.0}",348.051,#FFFFFF,unknown,{47},1998.0
Blixite,Pb8O5(OH)2Cl4,"{""Pb"": 8.0, ""O"": 7.0, ""H"": 2.0, ""Cl"": 4.0}",1913.409,#FFFFFF,monoclinic,"{32,56}",555.0
Blodite,Na2Mg(SO4)2·4H2O,"{""Na"": 2.0, ""Mg"": 1.0, ""S"": 2.0, ""O"": 12.0, ""H"": 8.0}",334.457,#FFFFFF,monoclinic,"{25,45,47,50,54}",3139.0
Blossite,Cu2V5+2O7,"{""Cu"": 2.0, ""V"": 2.0, ""O"": 7.0}",340.969,#00BFFF,orthorhombic,{45},424.0
Bluebellite,Cu6(IO3)(OH)10Cl,"{""Cu"": 6.0, ""I"": 1.0, ""O"": 13.0, ""H"": 10.0, ""Cl"": 1.0}",761.693,#FFFFFF,hexagonal,{47},1998.0
Bluelizardite,Na7(UO2)(SO4)4Cl(H2O)2,"{""Na"": 7.0, ""U"": 1.0, ""O"": 20.0, ""S"": 4.0, ""Cl"": 1.0, ""H"": 4.0}",886.662,#FFFFFF,monoclinic,"{47,55}",2262.0
Bluestreakite,K4Mg2(V4+2V5+8O28)·14H2O,"{""K"": 4.0, ""Mg"": 2.0, ""V"": 10.0, ""O"": 42.0, ""H"": 28.0}",1414.604,#FFFFFF,monoclinic,"{47,55}",2262.0