name,formula,elements,density,color,crystal
Hakite-(Cd),Cu6(Cu4Cd2)Sb4Se13,"{""Cu"": 10.0, ""Cd"": 2.0, ""Sb"": 4.0, ""Se"": 13.0}",2373.943,#FFFFFF,cubic
Hakite-(Fe),Cu6(Cu4Fe2)Sb4Se13,"{""Cu"": 10.0, ""Fe"": 2.0, ""Sb"": 4.0, ""Se"": 13.0}",2260.813,#556B2F,cubic
Hakite-(Hg),Cu6(Cu4Hg2)Sb4Se13,"{""Cu"": 10.0, ""Hg"": 2.0, ""Sb"": 4.0, ""Se"": 13.0}",2550.303,#FFFFFF,cubic
Halamishite,Ni5P4,"{""Ni"": 5.0, ""P"": 4.0}",417.361,#7FFF00,hexagonal
Haleniusite-(Ce),CeOF,"{""Ce"": 1.0, ""O"": 1.0, ""F"": 1.0}",175.117,#FFFFFF,cubic
Haleniusite-(La),LaOF,"{""La"": 1.0, ""O"": 1.0, ""F"": 1.0}",173.907,#FFFFFF,cubic
Halite,NaCl,"{""Na"": 1.0, ""Cl"": 1.0}",58.44,#FFFFFF,cubic
Halloysite,Al2Si2O5(OH)4,"{""Al"": 2.0, ""Si"": 2.0, ""O"": 9.0, ""H"": 4.0}",258.157,#FFFFFF,monoclinic
Halotrichite,Fe2+Al2(SO4)4·22H2O,"{""Fe"": 1.0, ""Al"": 2.0, ""S"": 4.0, ""O"": 38.0, ""H"": 44.0}",890.363,#556B2F,monoclinic
Halurgite,Mg4[B8O13(OH)2]2·7H2O,"{""Mg"": 4.0, ""B"": 16.0, ""O"": 37.0, ""H"": 18.0}",880.287,#FFFFFF,
Hambergite,Be2(BO3)(OH),"{""Be"": 2.0, ""B"": 1.0, ""O"": 4.0, ""H"": 1.0}",93.8384,#FFFFFF,orthorhombic
Hammarite,Cu2Pb2Bi4S9,"{""Cu"": 2.0, ""Pb"": 2.0, ""Bi"": 4.0, ""S"": 9.0}",1665.952,#708090,orthorhombic
Hanauerite,AgHgSI,"{""Ag"": 1.0, ""Hg"": 1.0, ""S"": 1.0, ""I"": 1.0}",467.42,#A9A9A9,orthorhombic
Hanawaltite,Hg1+6Hg2+O3Cl2,"{""Hg"": 7.0, ""O"": 3.0, ""Cl"": 2.0}",1523.027,#FFFFFF,orthorhombic
Hancockite,CaPb(Al2Fe3+)[Si2O7][SiO4]O(OH),"{""Ca"": 1.0, ""Pb"": 1.0, ""Al"": 2.0, ""Fe"": 1.0, ""Si"": 3.0, ""O"": 13.0, ""H"": 1.0}",650.337,#556B2F,monoclinic
Hanjiangite,Ba2Ca(V3+Al)(AlSi3O10)(OH)2F(CO3)2,"{""Ba"": 2.0, ""Ca"": 1.0, ""V"": 1.0, ""Al"": 2.0, ""Si"": 3.0, ""O"": 18.0, ""H"": 2.0, ""F"": 1.0, ""C"": 2.0}",836.917,#FFFFFF,monoclinic
Hanksite,KNa22(SO4)9(CO3)2Cl,"{""K"": 1.0, ""Na"": 22.0, ""S"": 9.0, ""O"": 42.0, ""C"": 2.0, ""Cl"": 1.0}",1564.848,#FFFFFF,hexagonal
Hannayite,(NH4)2Mg3(PO3OH)4·8H2O,"{""N"": 2.0, ""H"": 28.0, ""Mg"": 3.0, ""P"": 4.0, ""O"": 24.0}",637.025,#FFFFFF,triclinic
Hanswilkeite,KFeS2,"{""K"": 1.0, ""Fe"": 1.0, ""S"": 2.0}",159.063,#DAA520,monoclinic
Hapkeite,Fe2Si,"{""Fe"": 2.0, ""Si"": 1.0}",139.775,#8B4513,cubic
Haradaite,SrV4+Si2O7,"{""Sr"": 1.0, ""V"": 1.0, ""Si"": 2.0, ""O"": 7.0}",306.725,#FFFFFF,orthorhombic
Harmotome,Ba2(Si12Al4)O32·12H2O,"{""Ba"": 2.0, ""Si"": 12.0, ""Al"": 4.0, ""O"": 44.0, ""H"": 24.0}",1447.756,#FFFFFF,monoclinic
Harmunite,CaFe2O4,"{""Ca"": 1.0, ""Fe"": 2.0, ""O"": 4.0}",215.764,#8B4513,orthorhombic
Harrisonite,CaFe2+6(SiO4)2(PO4)2,"{""Ca"": 1.0, ""Fe"": 6.0, ""Si"": 2.0, ""O"": 16.0, ""P"": 2.0}",749.25,#556B2F,hexagonal
Hasanovite,KNa(MoO2)(SO4)2,"{""K"": 1.0, ""Na"": 1.0, ""Mo"": 1.0, ""O"": 10.0, ""S"": 2.0}",382.148,#FFFFFF,monoclinic
Hashemite,Ba(CrO4),"{""Ba"": 1.0, ""Cr"": 1.0, ""O"": 4.0}",253.322,#228B22,orthorhombic
Hastingsite,NaCa2(Fe2+4Fe3+)(Si6Al2)O22(OH)2,"{""Na"": 1.0, ""Ca"": 2.0, ""Fe"": 5.0, ""Si"": 6.0, ""Al"": 2.0, ""O"": 24.0, ""H"": 2.0}",990.837,#556B2F,monoclinic
Hatchite,AgTlPbAs2S5,"{""Ag"": 1.0, ""Tl"": 1.0, ""Pb"": 1.0, ""As"": 2.0, ""S"": 5.0}",829.594,#708090,triclinic
Hatertite,NaNaCa(Cu2+Fe3+)(AsO4)3,"{""Na"": 2.0, ""Ca"": 1.0, ""Cu"": 1.0, ""Fe"": 1.0, ""As"": 3.0, ""O"": 12.0}",622.203,#556B2F,monoclinic
Hatrurite,Ca3SiO5,"{""Ca"": 3.0, ""Si"": 1.0, ""O"": 5.0}",228.314,#FFFFFF,hexagonal
Hauchecornite,Ni9BiSbS8,"{""Ni"": 9.0, ""Bi"": 1.0, ""Sb"": 1.0, ""S"": 8.0}",1115.457,#A9A9A9,tetragonal
Hauyne,Na3Ca(Si3Al3)O12(SO4),"{""Na"": 3.0, ""Ca"": 1.0, ""Si"": 3.0, ""Al"": 3.0, ""O"": 16.0, ""S"": 1.0}",562.293,#FFFFFF,cubic
Hawleyite,CdS,"{""Cd"": 1.0, ""S"": 1.0}",144.47,#A9A9A9,cubic
Hawthorneite,BaMgTi3Cr4Fe2+2Fe3+2O19,"{""Ba"": 1.0, ""Mg"": 1.0, ""Ti"": 3.0, ""Cr"": 4.0, ""Fe"": 4.0, ""O"": 19.0}",1040.581,#556B2F,hexagonal
Haycockite,Cu4Fe5S8,"{""Cu"": 4.0, ""Fe"": 5.0, ""S"": 8.0}",789.889,#DAA520,orthorhombic
Haydeeite,Cu3Mg(OH)6Cl2,"{""Cu"": 3.0, ""Mg"": 1.0, ""O"": 6.0, ""H"": 6.0, ""Cl"": 2.0}",387.885,#FFFFFF,hexagonal
Haynesite,(UO2)3(Se4+O3)2(OH)2·5H2O,"{""U"": 3.0, ""O"": 19.0, ""Se"": 2.0, ""H"": 12.0}",1188.109,#FFFFFF,orthorhombic
Hayyanite,Cu5Ag11Pb76Sb71As17(As2+)8S224,"{""Cu"": 5.0, ""Ag"": 11.0, ""Pb"": 76.0, ""Sb"": 71.0, ""As"": 25.0, ""S"": 224.0}",34950.95,#708090,monoclinic
Hazenite,KNaMg2(PO4)2·14H2O,"{""K"": 1.0, ""Na"": 1.0, ""Mg"": 2.0, ""P"": 2.0, ""O"": 22.0, ""H"": 28.0}",552.848,#FFFFFF,orthorhombic
Heazlewoodite,Ni3S2,"{""Ni"": 3.0, ""S"": 2.0}",240.199,#A9A9A9,hexagonal
Hechtsbergite,Bi2O(VO4)(OH),"{""Bi"": 2.0, ""O"": 6.0, ""V"": 1.0, ""H"": 1.0}",565.904,#FFFFFF,monoclinic
Hectorfloresite,Na9(IO3)(SO4)4,"{""Na"": 9.0, ""I"": 1.0, ""O"": 19.0, ""S"": 4.0}",766.031,#FFFFFF,monoclinic
Hedenbergite,CaFe2+Si2O6,"{""Ca"": 1.0, ""Fe"": 1.0, ""Si"": 2.0, ""O"": 6.0}",248.087,#556B2F,monoclinic
Hedleyite,Bi7Te3,"{""Bi"": 7.0, ""Te"": 3.0}",1845.66,#D2B48C,hexagonal
Hedyphane,Ca2Pb3(AsO4)3Cl,"{""Ca"": 2.0, ""Pb"": 3.0, ""As"": 3.0, ""O"": 12.0, ""Cl"": 1.0}",1153.96,#FFFFFF,hexagonal
Heflikite,Ca2(Al2Sc)(Si2O7)(SiO4)O(OH),"{""Ca"": 2.0, ""Al"": 2.0, ""Sc"": 1.0, ""Si"": 3.0, ""O"": 13.0, ""H"": 1.0}",472.326,#FFFFFF,monoclinic
Heftetjernite,ScTaO4,"{""Sc"": 1.0, ""Ta"": 1.0, ""O"": 4.0}",289.902,#FFFFFF,monoclinic
Heidornite,Na2Ca3B5O8(SO4)2(OH)2Cl,"{""Na"": 2.0, ""Ca"": 3.0, ""B"": 5.0, ""O"": 18.0, ""S"": 2.0, ""H"": 2.0, ""Cl"": 1.0}",609.832,#FFFFFF,monoclinic
Heimaeyite,Na3Al(SO4)3,"{""Na"": 3.0, ""Al"": 1.0, ""S"": 3.0, ""O"": 12.0}",384.12,#FFFFFF,hexagonal
Heimite,PbCu2(AsO4)(OH)3·2H2O,"{""Pb"": 1.0, ""Cu"": 2.0, ""As"": 1.0, ""O"": 9.0, ""H"": 7.0}",560.261,#FFFFFF,monoclinic
Heinrichite,Ba(UO2)2(AsO4)2·10H2O,"{""Ba"": 1.0, ""U"": 2.0, ""O"": 22.0, ""As"": 2.0, ""H"": 20.0}",1135.372,#FFFFFF,monoclinic
Heisenbergite,(UO2)(OH)2·H2O,"{""U"": 1.0, ""O"": 5.0, ""H"": 4.0}",322.057,#ADFF2F,orthorhombic
Heklaite,KNaSiF6,"{""K"": 1.0, ""Na"": 1.0, ""Si"": 1.0, ""F"": 6.0}",204.161,#FFFFFF,orthorhombic
Hellyerite,Ni(CO3)·6H2O,"{""Ni"": 1.0, ""C"": 1.0, ""O"": 9.0, ""H"": 12.0}",226.791,#FFFFFF,
Hematite,Fe2O3,"{""Fe"": 2.0, ""O"": 3.0}",159.687,#8B4513,hexagonal
Hemleyite,FeSiO3,"{""Fe"": 1.0, ""Si"": 1.0, ""O"": 3.0}",131.927,#8B4513,hexagonal
Hendekasartorite,Tl2Pb48As82S172,"{""Tl"": 2.0, ""Pb"": 48.0, ""As"": 82.0, ""S"": 172.0}",22012.284,#708090,monoclinic
Heneuite,CaMg5(PO4)3(CO3)(OH),"{""Ca"": 1.0, ""Mg"": 5.0, ""P"": 3.0, ""O"": 16.0, ""C"": 1.0, ""H"": 1.0}",523.528,#FFFFFF,triclinic
Henmilite,Ca2Cu[B(OH)4]2(OH)4,"{""Ca"": 2.0, ""Cu"": 1.0, ""B"": 2.0, ""O"": 12.0, ""H"": 12.0}",369.406,#FFFFFF,triclinic
Henrymeyerite,Ba(Ti7Fe2+)O16,"{""Ba"": 1.0, ""Ti"": 7.0, ""Fe"": 1.0, ""O"": 16.0}",784.228,#556B2F,tetragonal
Henrysunite,Na2(C2H3O3)2(H2O),"{""Na"": 2.0, ""C"": 4.0, ""H"": 8.0, ""O"": 7.0}",214.081,#FFFFFF,orthorhombic
Hentschelite,CuFe3+2(PO4)2(OH)2,"{""Cu"": 1.0, ""Fe"": 2.0, ""P"": 2.0, ""O"": 10.0, ""H"": 2.0}",399.19,#556B2F,monoclinic
Hephaistosite,TlPb2Cl5,"{""Tl"": 1.0, ""Pb"": 2.0, ""Cl"": 5.0}",796.03,#FFFFFF,monoclinic
Heptasartorite,Tl7Pb22As55S108,"{""Tl"": 7.0, ""Pb"": 22.0, ""As"": 55.0, ""S"": 108.0}",13572.25,#708090,monoclinic
Hercynite,Fe2+Al2O4,"{""Fe"": 1.0, ""Al"": 2.0, ""O"": 4.0}",173.805,#8B4513,cubic
Herderite,CaBe(PO4)F,"{""Ca"": 1.0, ""Be"": 1.0, ""P"": 1.0, ""O"": 4.0, ""F"": 1.0}",163.0582,#FFFFFF,monoclinic
Hermannroseite,CaCu(PO4)(OH),"{""Ca"": 1.0, ""Cu"": 1.0, ""P"": 1.0, ""O"": 5.0, ""H"": 1.0}",215.601,#FFFFFF,orthorhombic
Hessite,Ag2Te,"{""Ag"": 2.0, ""Te"": 1.0}",343.34,#C0C0C0,monoclinic
Heterogenite,Co3+O(OH),"{""Co"": 1.0, ""O"": 2.0, ""H"": 1.0}",91.939,#4169E1,hexagonal
Heteromorphite,Pb7Sb8S19,"{""Pb"": 7.0, ""Sb"": 8.0, ""S"": 19.0}",3033.62,#708090,monoclinic
Heterosite,Fe3+(PO4),"{""Fe"": 1.0, ""P"": 1.0, ""O"": 4.0}",150.815,#8B4513,orthorhombic
Hewettite,CaV5+6O16·9H2O,"{""Ca"": 1.0, ""V"": 6.0, ""O"": 25.0, ""H"": 18.0}",763.849,#FFFFFF,monoclinic
Hexacelsian,Ba(Al2Si2O8),"{""Ba"": 1.0, ""Al"": 2.0, ""Si"": 2.0, ""O"": 8.0}",375.456,#FFFFFF,hexagonal
Hexahydrite,Mg(SO4)·6H2O,"{""Mg"": 1.0, ""S"": 1.0, ""O"": 10.0, ""H"": 12.0}",228.451,#FFFFFF,monoclinic
Hexahydroborite,Ca[B(OH)4]2·2H2O,"{""Ca"": 1.0, ""B"": 2.0, ""O"": 10.0, ""H"": 12.0}",233.784,#FFFFFF,monoclinic
Hexathioplumbite,[Pb4(OH)4]Pb(S2O3)3,"{""Pb"": 5.0, ""O"": 13.0, ""H"": 4.0, ""S"": 6.0}",1440.379,#FFFFFF,hexagonal
Heyite,Pb5Fe2+2O4(VO4)2,"{""Pb"": 5.0, ""Fe"": 2.0, ""O"": 12.0, ""V"": 2.0}",1441.562,#556B2F,monoclinic
Heyrovskyite,Pb6Bi2S9,"{""Pb"": 6.0, ""Bi"": 2.0, ""S"": 9.0}",1949.7,#708090,orthorhombic
Hibbingite,Fe2+2(OH)3Cl,"{""Fe"": 2.0, ""O"": 3.0, ""H"": 3.0, ""Cl"": 1.0}",198.161,#556B2F,orthorhombic
Hibonite,CaAl12O19,"{""Ca"": 1.0, ""Al"": 12.0, ""O"": 19.0}",667.843,#FFFFFF,hexagonal
Hidalgoite,PbAl3(SO4)(AsO4)(OH)6,"{""Pb"": 1.0, ""Al"": 3.0, ""S"": 1.0, ""O"": 14.0, ""As"": 1.0, ""H"": 6.0}",625.162,#FFFFFF,hexagonal
Hielscherite,Ca6Si2[(SO4)2(SO3)2(OH)12]·22H2O,"{""Ca"": 6.0, ""Si"": 2.0, ""S"": 4.0, ""O"": 48.0, ""H"": 56.0}",1249.278,#FFFFFF,hexagonal
Hieratite,K2SiF6,"{""K"": 2.0, ""Si"": 1.0, ""F"": 6.0}",220.269,#FFFFFF,cubic
Hilairite,Na2ZrSi3O9·3H2O,"{""Na"": 2.0, ""Zr"": 1.0, ""Si"": 3.0, ""O"": 12.0, ""H"": 6.0}",419.495,#FFFFFF,hexagonal
Hilarionite,Fe3+2(SO4)(AsO4)(OH)·6H2O,"{""Fe"": 2.0, ""S"": 1.0, ""O"": 15.0, ""As"": 1.0, ""H"": 13.0}",471.761,#556B2F,monoclinic
Hilgardite,Ca2B5O9Cl·H2O,"{""Ca"": 2.0, ""B"": 5.0, ""O"": 10.0, ""Cl"": 1.0, ""H"": 2.0}",331.662,#FFFFFF,monoclinic
Hillebrandite,Ca2SiO3(OH)2,"{""Ca"": 2.0, ""Si"": 1.0, ""O"": 5.0, ""H"": 2.0}",190.252,#FFFFFF,orthorhombic
Hingganite-(Ce),BeCe(SiO4)(OH),"{""Be"": 1.0, ""Ce"": 1.0, ""Si"": 1.0, ""O"": 5.0, ""H"": 1.0}",258.2202,#FFFFFF,monoclinic
Hingganite-(Y),BeY(SiO4)(OH),"{""Be"": 1.0, ""Y"": 1.0, ""Si"": 1.0, ""O"": 5.0, ""H"": 1.0}",207.0062,#FFFFFF,monoclinic
Hingganite-(Yb),BeYb(SiO4)(OH),"{""Be"": 1.0, ""Yb"": 1.0, ""Si"": 1.0, ""O"": 5.0, ""H"": 1.0}",291.1502,#FFFFFF,monoclinic
Hinsdalite,PbAl3(SO4)(PO4)(OH)6,"{""Pb"": 1.0, ""Al"": 3.0, ""S"": 1.0, ""O"": 14.0, ""P"": 1.0, ""H"": 6.0}",581.214,#FFFFFF,hexagonal
Hiroseite,FeSiO3,"{""Fe"": 1.0, ""Si"": 1.0, ""O"": 3.0}",131.927,#8B4513,orthorhombic
Hisingerite,Fe2Si2O5(OH)4·2H2O,"{""Fe"": 2.0, ""Si"": 2.0, ""O"": 11.0, ""H"": 8.0}",351.913,#556B2F,
Hitachiite,Pb5Bi2Te2S6,"{""Pb"": 5.0, ""Bi"": 2.0, ""Te"": 2.0, ""S"": 6.0}",1901.52,#708090,hexagonal
Hizenite-(Y),Ca2Y6(CO3)11·14H2O,"{""Ca"": 2.0, ""Y"": 6.0, ""C"": 11.0, ""O"": 47.0, ""H"": 28.0}",1525.89,#FFFFFF,orthorhombic
Hochelagaite,CaNb4O11·8H2O,"{""Ca"": 1.0, ""Nb"": 4.0, ""O"": 19.0, ""H"": 16.0}",731.811,#FFFFFF,monoclinic
Hodrusite,Cu8Bi12S22,"{""Cu"": 8.0, ""Bi"": 12.0, ""S"": 22.0}",3721.448,#A9A9A9,monoclinic
Hoelite,C14H8O2,"{""C"": 14.0, ""H"": 8.0, ""O"": 2.0}",208.216,#FFFFFF,monoclinic
Hoganite,Cu(CH3COO)2·H2O,"{""Cu"": 1.0, ""C"": 4.0, ""H"": 8.0, ""O"": 5.0}",199.649,#FFFFFF,monoclinic
Hogtuvaite,Ca4[Fe2+6Fe3+6]O4[Si8Be2Al2O36],"{""Ca"": 4.0, ""Fe"": 12.0, ""O"": 40.0, ""Si"": 8.0, ""Be"": 2.0, ""Al"": 2.0}",1767.0804,#556B2F,triclinic
Hohmannite,Fe3+2O(SO4)2·8H2O,"{""Fe"": 2.0, ""O"": 17.0, ""S"": 2.0, ""H"": 16.0}",463.921,#556B2F,triclinic
Hokkaidoite,C22H12,"{""C"": 22.0, ""H"": 12.0}",276.338,#FFFFFF,monoclinic
Hollingworthite,RhAsS,"{""Rh"": 1.0, ""As"": 1.0, ""S"": 1.0}",209.892,#FFD700,cubic
Hollisterite,Al3Fe,"{""Al"": 3.0, ""Fe"": 1.0}",136.791,#8B4513,monoclinic
Holtstamite,Ca3Al2(SiO4)2(OH)4,"{""Ca"": 3.0, ""Al"": 2.0, ""Si"": 2.0, ""O"": 12.0, ""H"": 4.0}",426.388,#FFFFFF,tetragonal
Holubite,Ag3Pb6(Sb8Bi3)S24,"{""Ag"": 3.0, ""Pb"": 6.0, ""Sb"": 8.0, ""Bi"": 3.0, ""S"": 24.0}",3937.27,#708090,monoclinic
Homilite,Ca2Fe2+B2Si2O10,"{""Ca"": 2.0, ""Fe"": 1.0, ""B"": 2.0, ""Si"": 2.0, ""O"": 10.0}",373.781,#556B2F,monoclinic
Honeaite,Au3TlTe2,"{""Au"": 3.0, ""Tl"": 1.0, ""Te"": 2.0}",1050.49,#FFD700,orthorhombic
Hongshiite,PtCu,"{""Pt"": 1.0, ""Cu"": 1.0}",258.626,#00BFFF,hexagonal
Honzaite,Ni2[AsO3(OH)]2(H2O)5,"{""Ni"": 2.0, ""As"": 2.0, ""O"": 13.0, ""H"": 12.0}",487.313,#FFFFFF,monoclinic
Hoperanchite,(NH4)2(S2O3),"{""N"": 2.0, ""H"": 8.0, ""S"": 2.0, ""O"": 3.0}",148.195,#FFFFFF,monoclinic
Hopmannite,Ba2(Ti5Fe)O13,"{""Ba"": 2.0, ""Ti"": 5.0, ""Fe"": 1.0, ""O"": 13.0}",777.827,#556B2F,monoclinic
Hornesite,Mg3(AsO4)2·8H2O,"{""Mg"": 3.0, ""As"": 2.0, ""O"": 16.0, ""H"": 16.0}",494.871,#FFFFFF,monoclinic
Horomanite,Fe6Ni3S8,"{""Fe"": 6.0, ""Ni"": 3.0, ""S"": 8.0}",767.629,#DAA520,tetragonal
Horvathite-(Y),NaY(CO3)F2,"{""Na"": 1.0, ""Y"": 1.0, ""C"": 1.0, ""O"": 3.0, ""F"": 2.0}",209.9,#FFFFFF,orthorhombic
Hoslite,Fe3+3(VO4)2(SO4)(OH)(H2O)4·3H2O,"{""Fe"": 3.0, ""V"": 2.0, ""O"": 20.0, ""S"": 1.0, ""H"": 15.0}",636.579,#556B2F,monoclinic
Hotsonite,Al5(SO4)(PO4)(OH)10·8H2O,"{""Al"": 5.0, ""S"": 1.0, ""O"": 26.0, ""P"": 1.0, ""H"": 26.0}",640.126,#FFFFFF,triclinic
Housleyite,Pb6CuTe4O18(OH)2,"{""Pb"": 6.0, ""Cu"": 1.0, ""Te"": 4.0, ""O"": 20.0, ""H"": 2.0}",2139.142,#FFFFFF,monoclinic
Howardevansite,NaCu2+Fe3+2(VO4)3,"{""Na"": 1.0, ""Cu"": 1.0, ""Fe"": 2.0, ""V"": 3.0, ""O"": 12.0}",543.04,#556B2F,triclinic
Howlite,Ca2SiB5O9(OH)5,"{""Ca"": 2.0, ""Si"": 1.0, ""B"": 5.0, ""O"": 14.0, ""H"": 5.0}",391.317,#FFFFFF,monoclinic
Hrabakite,Ni9PbSbS8,"{""Ni"": 9.0, ""Pb"": 1.0, ""Sb"": 1.0, ""S"": 8.0}",1113.677,#708090,tetragonal
Hsianghualite,Li2Ca3Be3(SiO4)3F2,"{""Li"": 2.0, ""Ca"": 3.0, ""Be"": 3.0, ""Si"": 3.0, ""O"": 12.0, ""F"": 2.0}",475.3896,#FFFFFF,cubic
Huanghoite-(Ce),BaCe(CO3)2F,"{""Ba"": 1.0, ""Ce"": 1.0, ""C"": 2.0, ""O"": 6.0, ""F"": 1.0}",416.464,#FFFFFF,hexagonal
Huanghoite-(Nd),BaNd(CO3)2F,"{""Ba"": 1.0, ""Nd"": 1.0, ""C"": 2.0, ""O"": 6.0, ""F"": 1.0}",420.584,#FFFFFF,hexagonal
Huanzalaite,Mg(WO4),"{""Mg"": 1.0, ""W"": 1.0, ""O"": 4.0}",272.141,#FFFFFF,monoclinic
Hubbardite,Mg(H2O)6[(UO2)2O(OH)(SO4)]2·8H2O,"{""Mg"": 1.0, ""H"": 30.0, ""O"": 34.0, ""U"": 4.0, ""S"": 2.0}",1614.751,#FFFFFF,orthorhombic
Huemulite,Na4MgV5+10O28·24H2O,"{""Na"": 4.0, ""Mg"": 1.0, ""V"": 10.0, ""O"": 52.0, ""H"": 48.0}",1506.017,#FFFFFF,triclinic
Huenite,Cu4(MoO4)3(OH)2,"{""Cu"": 4.0, ""Mo"": 3.0, ""O"": 14.0, ""H"": 2.0}",768.036,#FFFFFF,hexagonal
Hugelite,Pb2(UO2)3(AsO4)2O2·5H2O,"{""Pb"": 2.0, ""U"": 3.0, ""O"": 21.0, ""As"": 2.0, ""H"": 10.0}",1624.393,#FFFFFF,monoclinic
Hughesite,Na3AlV10O28·22H2O,"{""Na"": 3.0, ""Al"": 1.0, ""V"": 10.0, ""O"": 50.0, ""H"": 44.0}",1449.674,#FFFFFF,triclinic
Huizingite-(Al),(NH4)9Al3(SO4)8(OH)2·4H2O,"{""N"": 9.0, ""H"": 46.0, ""Al"": 3.0, ""S"": 8.0, ""O"": 38.0}",1117.819,#FFFFFF,triclinic
Hulsite,Fe2+2Fe3+O2(BO3),"{""Fe"": 3.0, ""O"": 5.0, ""B"": 1.0}",258.34,#8B4513,monoclinic
Humberstonite,K3Na7Mg2(SO4)6(NO3)2·6H2O,"{""K"": 3.0, ""Na"": 7.0, ""Mg"": 2.0, ""S"": 6.0, ""O"": 36.0, ""N"": 2.0, ""H"": 12.0}",1135.268,#FFFFFF,hexagonal
Humboldtine,Fe2+(C2O4)·2H2O,"{""Fe"": 1.0, ""C"": 2.0, ""O"": 6.0, ""H"": 4.0}",179.893,#556B2F,monoclinic
Humite,Mg7(SiO4)3F2,"{""Mg"": 7.0, ""Si"": 3.0, ""O"": 12.0, ""F"": 2.0}",484.374,#FFFFFF,orthorhombic
Hummerite,KMgV5+5O14·8H2O,"{""K"": 1.0, ""Mg"": 1.0, ""V"": 5.0, ""O"": 22.0, ""H"": 16.0}",686.219,#FFFFFF,triclinic
Hunchunite,Au2Pb,"{""Au"": 2.0, ""Pb"": 1.0}",601.14,#FFD700,cubic
Hungchaoite,MgB4O5(OH)4·7H2O,"{""Mg"": 1.0, ""B"": 4.0, ""O"": 16.0, ""H"": 18.0}",341.673,#FFFFFF,triclinic
Huntingdonite,Pb19Sb16As6S51Cl2,"{""Pb"": 19.0, ""Sb"": 16.0, ""As"": 6.0, ""S"": 51.0, ""Cl"": 2.0}",8040.452,#708090,triclinic
Huntite,CaMg3(CO3)4,"{""Ca"": 1.0, ""Mg"": 3.0, ""C"": 4.0, ""O"": 12.0}",353.025,#FFFFFF,hexagonal
Hurlbutite,CaBe2(PO4)2,"{""Ca"": 1.0, ""Be"": 2.0, ""P"": 2.0, ""O"": 8.0}",248.0424,#FFFFFF,monoclinic
Hutcheonite,Ca3Ti2(SiAl2)O12,"{""Ca"": 3.0, ""Ti"": 2.0, ""Si"": 1.0, ""Al"": 2.0, ""O"": 12.0}",490.005,#FFFFFF,cubic
Hutchinsonite,TlPbAs5S9,"{""Tl"": 1.0, ""Pb"": 1.0, ""As"": 5.0, ""S"": 9.0}",1074.73,#708090,orthorhombic
Huttonite,Th(SiO4),"{""Th"": 1.0, ""Si"": 1.0, ""O"": 4.0}",324.121,#FFFFFF,monoclinic
Hyblerite,Pb2+4Bi3+2(SO4)2(CO3)O4,"{""Pb"": 4.0, ""Bi"": 2.0, ""S"": 2.0, ""O"": 15.0, ""C"": 1.0}",1562.876,#FFFFFF,orthorhombic
Hydrobasaluminite,Al4(SO4)(OH)10·15H2O,"{""Al"": 4.0, ""S"": 1.0, ""O"": 29.0, ""H"": 40.0}",644.279,#FFFFFF,monoclinic
Hydroboracite,CaMg[B3O4(OH)3]2·3H2O,"{""Ca"": 1.0, ""Mg"": 1.0, ""B"": 6.0, ""O"": 17.0, ""H"": 12.0}",413.322,#FFFFFF,monoclinic
Hydrocerussite,Pb3(CO3)2(OH)2,"{""Pb"": 3.0, ""C"": 2.0, ""O"": 8.0, ""H"": 2.0}",775.63,#FFFFFF,hexagonal
Hydrochlorborite,Ca2B3O3(OH)4·BO(OH)3Cl·7H2O,"{""Ca"": 2.0, ""B"": 4.0, ""O"": 18.0, ""H"": 21.0, ""Cl"": 1.0}",467.996,#FFFFFF,monoclinic
Hydrodelhayelite,KCa2(Si7Al)O17(OH)2·6H2O,"{""K"": 1.0, ""Ca"": 2.0, ""Si"": 7.0, ""Al"": 1.0, ""O"": 25.0, ""H"": 14.0}",756.918,#FFFFFF,orthorhombic
Hydrodresserite,BaAl2(CO3)2(OH)4·3H2O,"{""Ba"": 1.0, ""Al"": 2.0, ""C"": 2.0, ""O"": 13.0, ""H"": 10.0}",433.383,#FFFFFF,triclinic
Hydroglauberite,Na10Ca3(SO4)8·6H2O,"{""Na"": 10.0, ""Ca"": 3.0, ""S"": 8.0, ""O"": 38.0, ""H"": 12.0}",1226.672,#FFFFFF,
Hydrohalite,NaCl·2H2O,"{""Na"": 1.0, ""Cl"": 1.0, ""H"": 4.0, ""O"": 2.0}",94.47,#FFFFFF,monoclinic
Hydrohalloysite,Al2Si2O5(OH)4·2H2O,"{""Al"": 2.0, ""Si"": 2.0, ""O"": 11.0, ""H"": 8.0}",294.187,#FFFFFF,
Hydromagnesite,Mg5(CO3)4(OH)2·4H2O,"{""Mg"": 5.0, ""C"": 4.0, ""O"": 18.0, ""H"": 10.0}",467.631,#FFFFFF,monoclinic
Hydroniumjarosite,(H3O)Fe3+3(SO4)2(OH)6,"{""H"": 9.0, ""O"": 15.0, ""Fe"": 3.0, ""S"": 2.0}",480.712,#556B2F,hexagonal
Hydroniumpharmacosiderite,(H3O)Fe3+4(AsO4)3(OH)4·4H2O,"{""H"": 15.0, ""O"": 21.0, ""Fe"": 4.0, ""As"": 3.0}",799.245,#556B2F,cubic
Hydronovacekite,Mg(UO2)2(AsO4)2·12H2O,"{""Mg"": 1.0, ""U"": 2.0, ""O"": 24.0, ""As"": 2.0, ""H"": 24.0}",1058.377,#FFFFFF,triclinic
Hydropascoite,Ca3(V10O28)·24H2O,"{""Ca"": 3.0, ""V"": 10.0, ""O"": 52.0, ""H"": 48.0}",1509.986,#FFFFFF,triclinic
Hydrotalcite,Mg6Al2(OH)16(CO3)(H2O)4,"{""Mg"": 6.0, ""Al"": 2.0, ""O"": 23.0, ""H"": 24.0, ""C"": 1.0}",603.974,#FFFFFF,hexagonal
Hydroterskite,Na2ZrSi6O12(OH)6,"{""Na"": 2.0, ""Zr"": 1.0, ""Si"": 6.0, ""O"": 18.0, ""H"": 6.0}",599.744,#FFFFFF,orthorhombic
Hydrotungstite,WO2(OH)2·H2O,"{""W"": 1.0, ""O"": 5.0, ""H"": 4.0}",267.867,#FFFFFF,monoclinic
Hydroxylapatite,Ca5(PO4)3OH,"{""Ca"": 5.0, ""P"": 3.0, ""O"": 13.0, ""H"": 1.0}",502.307,#FFFFFF,hexagonal
Hydroxylbastnasite-(Ce),Ce(CO3)(OH),"{""Ce"": 1.0, ""C"": 1.0, ""O"": 4.0, ""H"": 1.0}",217.135,#FFFFFF,hexagonal
Hydroxylbastnasite-(La),La(CO3)(OH),"{""La"": 1.0, ""C"": 1.0, ""O"": 4.0, ""H"": 1.0}",215.925,#FFFFFF,hexagonal
Hydroxylbastnasite-(Nd),Nd(CO3)(OH),"{""Nd"": 1.0, ""C"": 1.0, ""O"": 4.0, ""H"": 1.0}",221.255,#FFFFFF,hexagonal
Hydroxylborite,Mg3(BO3)(OH)3,"{""Mg"": 3.0, ""B"": 1.0, ""O"": 6.0, ""H"": 3.0}",182.743,#FFFFFF,hexagonal
Hydroxylchondrodite,Mg5(SiO4)2(OH)2,"{""Mg"": 5.0, ""Si"": 2.0, ""O"": 10.0, ""H"": 2.0}",339.701,#FFFFFF,monoclinic
Hydroxylclinohumite,Mg9(SiO4)4(OH)2,"{""Mg"": 9.0, ""Si"": 4.0, ""O"": 18.0, ""H"": 2.0}",621.083,#FFFFFF,monoclinic
Hydroxyledgrewite,Ca9(SiO4)4(OH)2,"{""Ca"": 9.0, ""Si"": 4.0, ""O"": 18.0, ""H"": 2.0}",763.04,#FFFFFF,monoclinic
Hydroxylhedyphane,Ca2Pb3(AsO4)3(OH),"{""Ca"": 2.0, ""Pb"": 3.0, ""As"": 3.0, ""O"": 13.0, ""H"": 1.0}",1135.517,#FFFFFF,hexagonal
Hydroxylherderite,CaBe(PO4)(OH),"{""Ca"": 1.0, ""Be"": 1.0, ""P"": 1.0, ""O"": 5.0, ""H"": 1.0}",161.0672,#FFFFFF,monoclinic
Hydroxylpyromorphite,Pb5(PO4)3(OH),"{""Pb"": 5.0, ""P"": 3.0, ""O"": 13.0, ""H"": 1.0}",1337.917,#FFFFFF,hexagonal
Hydroxylwagnerite,Mg2(PO4)(OH),"{""Mg"": 2.0, ""P"": 1.0, ""O"": 5.0, ""H"": 1.0}",160.587,#FFFFFF,monoclinic
Hydroxymcglassonite-(K),KSr4Si8O20(OH)·8H2O,"{""K"": 1.0, ""Sr"": 4.0, ""Si"": 8.0, ""O"": 29.0, ""H"": 17.0}",1095.365,#FFFFFF,tetragonal
Hylbrownite,Na3MgP3O10·12H2O,"{""Na"": 3.0, ""Mg"": 1.0, ""P"": 3.0, ""O"": 22.0, ""H"": 24.0}",562.367,#FFFFFF,monoclinic
Hypercinnabar,HgS,"{""Hg"": 1.0, ""S"": 1.0}",232.65,#A9A9A9,hexagonal
Hyrslite,Pb8As10Sb6S32,"{""Pb"": 8.0, ""As"": 10.0, ""Sb"": 6.0, ""S"": 32.0}",4163.3,#708090,monoclinic
Ianthinite,U4+2(UO2)4O6(OH)4·9H2O,"{""U"": 6.0, ""O"": 27.0, ""H"": 22.0}",1882.329,#ADFF2F,orthorhombic