name,formula,elements,density,color,crystal,pm_ids,gacha_weight
Fleischerite,Pb3Ge(SO4)2(OH)6·3H2O,"{""Pb"": 3.0, ""Ge"": 1.0, ""S"": 2.0, ""O"": 17.0, ""H"": 12.0}",1042.429,#FFFFFF,hexagonal,{47},3.003e-09
Fleisstalite,Fe2+(SO3)·3H2O,"{""Fe"": 1.0, ""S"": 1.0, ""O"": 6.0, ""H"": 6.0}",189.947,#556B2F,orthorhombic,{47},3.003e-09
Fletcherite,CuNi2S4,"{""Cu"": 1.0, ""Ni"": 2.0, ""S"": 4.0}",309.172,#A9A9A9,cubic,{33},2.51e-10
Flinkite,Mn2+2Mn3+(AsO4)(OH)4,"{""Mn"": 3.0, ""As"": 1.0, ""O"": 8.0, ""H"": 4.0}",371.76,#FFFFFF,orthorhombic,"{32,47}",8.721e-09
Flinteite,K2ZnCl4,"{""K"": 2.0, ""Zn"": 1.0, ""Cl"": 4.0}",285.376,#FFFFFF,orthorhombic,{45},2.3585e-08
Florencite-(Ce),CeAl3(PO4)2(OH)6,"{""Ce"": 1.0, ""Al"": 3.0, ""P"": 2.0, ""O"": 14.0, ""H"": 6.0}",513.048,#FFFFFF,hexagonal,"{47,52}",2.8904e-08
Florencite-(La),LaAl3(PO4)2(OH)6,"{""La"": 1.0, ""Al"": 3.0, ""P"": 2.0, ""O"": 14.0, ""H"": 6.0}",511.838,#FFFFFF,unknown,"{24,47}",2.8529e-08
Florencite-(Nd),NdAl3(PO4)2(OH)6,"{""Nd"": 1.0, ""Al"": 3.0, ""P"": 2.0, ""O"": 14.0, ""H"": 6.0}",517.168,#FFFFFF,hexagonal,{47},1.5015e-08
Florencite-(Sm),SmAl3(PO4)2(OH)6,"{""Sm"": 1.0, ""Al"": 3.0, ""P"": 2.0, ""O"": 14.0, ""H"": 6.0}",523.288,#FFFFFF,hexagonal,{47},1.5015e-08
Florenskyite,FeTiP,"{""Fe"": 1.0, ""Ti"": 1.0, ""P"": 1.0}",134.686,#8B4513,orthorhombic,{6},4.878e-09
Florkeite,(K3Ca2Na)[Al8Si8O32]·12H2O,"{""K"": 3.0, ""Ca"": 2.0, ""Na"": 1.0, ""Al"": 8.0, ""Si"": 8.0, ""O"": 44.0, ""H"": 24.0}",1389.124,#FFFFFF,triclinic,{8},8.387097e-06
Fluckite,CaMn2+(AsO3OH)2·2H2O,"{""Ca"": 1.0, ""Mn"": 1.0, ""As"": 2.0, ""O"": 10.0, ""H"": 6.0}",410.898,#FFFFFF,triclinic,"{47,55}",9.401e-09
Fluellite,Al2(PO4)F2(OH)·7H2O,"{""Al"": 2.0, ""P"": 1.0, ""O"": 12.0, ""F"": 2.0, ""H"": 15.0}",330.042,#FFFFFF,orthorhombic,{47},7.508e-09
Fluoborite,Mg3(BO3)F3,"{""Mg"": 3.0, ""B"": 1.0, ""O"": 3.0, ""F"": 3.0}",188.716,#FFFFFF,hexagonal,"{23,45}",8.9119e-08
Fluocerite-(Ce),CeF3,"{""Ce"": 1.0, ""F"": 3.0}",197.114,#FFFFFF,hexagonal,"{23,35,36}",9.0347e-08
Fluocerite-(La),LaF3,"{""La"": 1.0, ""F"": 3.0}",195.904,#FFFFFF,hexagonal,"{23,35,36}",9.0347e-08
Fluoralforsite,Ba5(PO4)3F,"{""Ba"": 5.0, ""P"": 3.0, ""O"": 12.0, ""F"": 1.0}",990.558,#FFFFFF,hexagonal,{},5e-08
Fluorannite,KFe2+3(Si3Al)O10F2,"{""K"": 1.0, ""Fe"": 3.0, ""Si"": 3.0, ""Al"": 1.0, ""O"": 10.0, ""F"": 2.0}",515.856,#556B2F,monoclinic,"{8,9,19,20,31,34,35,40}",2.55908e-06
Fluorapatite,Ca5(PO4)3F,"{""Ca"": 5.0, ""P"": 3.0, ""O"": 12.0, ""F"": 1.0}",504.298,#FFFFFF,monoclinic,"{6,19,21,23,24,34,35,36,40,48,49}",2.338765e-06
Fluorapophyllite-(Cs),CsCa4(Si8O20)F(H2O)8,"{""Cs"": 1.0, ""Ca"": 4.0, ""Si"": 8.0, ""O"": 28.0, ""F"": 1.0, ""H"": 16.0}",1001.0,#FFFFFF,tetragonal,{35},6.89e-10
Fluorapophyllite-(K),KCa4Si8O20F·8H2O,"{""K"": 1.0, ""Ca"": 4.0, ""Si"": 8.0, ""O"": 28.0, ""F"": 1.0, ""H"": 16.0}",907.188,#FFFFFF,tetragonal,"{19,23,35,40}",2.3071e-06
Fluorapophyllite-(Na),NaCa4Si8O20F·8H2O,"{""Na"": 1.0, ""Ca"": 4.0, ""Si"": 8.0, ""O"": 28.0, ""F"": 1.0, ""H"": 16.0}",891.08,#FFFFFF,orthorhombic,"{19,23,35,40}",2.3071e-06
Fluorapophyllite-(NH4),(NH4)Ca4(Si8O20)F·8H2O,"{""N"": 1.0, ""H"": 20.0, ""Ca"": 4.0, ""Si"": 8.0, ""O"": 28.0, ""F"": 1.0}",886.129,#FFFFFF,tetragonal,{20},1.1111e-08
Fluorarrojadite-(BaFe),Na2CaBaFe2+Fe2+13Al(PO4)11(PO3OH)F2,"{""Na"": 2.0, ""Ca"": 1.0, ""Ba"": 1.0, ""Fe"": 14.0, ""Al"": 1.0, ""P"": 12.0, ""O"": 48.0, ""H"": 1.0, ""F"": 2.0}",2210.844,#556B2F,monoclinic,{34},8.87e-10
Fluorarrojadite-(BaNa),BaNa4CaFe13Al(PO4)11(PO3OH)F2,"{""Ba"": 1.0, ""Na"": 4.0, ""Ca"": 1.0, ""Fe"": 13.0, ""Al"": 1.0, ""P"": 12.0, ""O"": 48.0, ""H"": 1.0, ""F"": 2.0}",2200.979,#556B2F,monoclinic,{34},8.87e-10
Fluorbarytolamprophyllite,(BaK)Ti2Na3Ti(Si2O7)2O2F2,"{""Ba"": 1.0, ""K"": 1.0, ""Ti"": 3.0, ""Na"": 3.0, ""Si"": 4.0, ""O"": 16.0, ""F"": 2.0}",795.319,#FFFFFF,monoclinic,{35},6.89e-10
Fluorbritholite-(La),Ca2La3(SiO4)3F,"{""Ca"": 2.0, ""La"": 3.0, ""Si"": 3.0, ""O"": 12.0, ""F"": 1.0}",792.127,#FFFFFF,hexagonal,{},5e-08
Fluorbritholite-(Nd),Ca2Nd3(SiO4)3F,"{""Ca"": 2.0, ""Nd"": 3.0, ""Si"": 3.0, ""O"": 12.0, ""F"": 1.0}",808.117,#FFFFFF,hexagonal,{},5e-08
Fluor-buergerite,NaFe3+3Al6(Si6O18)(BO3)3O3F,"{""Na"": 1.0, ""Fe"": 3.0, ""Al"": 6.0, ""Si"": 6.0, ""O"": 30.0, ""B"": 3.0, ""F"": 1.0}",1052.325,#556B2F,hexagonal,"{20,34}",1.1998e-08
Fluorcanasite,K3Na3Ca5Si12O30F4·H2O,"{""K"": 3.0, ""Na"": 3.0, ""Ca"": 5.0, ""Si"": 12.0, ""O"": 31.0, ""F"": 4.0, ""H"": 2.0}",1297.651,#FFFFFF,monoclinic,{35},6.89e-10
Fluorcaphite,SrCaCa3(PO4)3F,"{""Sr"": 1.0, ""Ca"": 4.0, ""P"": 3.0, ""O"": 12.0, ""F"": 1.0}",551.84,#FFFFFF,hexagonal,{36},1.718e-09
Fluorcarletonite,KNa4Ca4Si8O18(CO3)4F·H2O,"{""K"": 1.0, ""Na"": 4.0, ""Ca"": 4.0, ""Si"": 8.0, ""O"": 31.0, ""C"": 4.0, ""F"": 1.0, ""H"": 2.0}",1081.077,#FFFFFF,tetragonal,{35},6.89e-10
Fluorchegemite,Ca7(SiO4)3F2,"{""Ca"": 7.0, ""Si"": 3.0, ""O"": 12.0, ""F"": 2.0}",594.785,#FFFFFF,unknown,{9},3.937e-09
Fluor-dravite,NaMg3Al6(Si6O18)(BO3)3(OH)3F,"{""Na"": 1.0, ""Mg"": 3.0, ""Al"": 6.0, ""Si"": 6.0, ""O"": 30.0, ""B"": 3.0, ""H"": 3.0, ""F"": 1.0}",960.729,#FFFFFF,hexagonal,"{23,34,40}",5.59046e-07
Fluorite,CaF2,"{""Ca"": 1.0, ""F"": 2.0}",78.074,#FFFFFF,cubic,"{19,23,26,31,32,34,35,36,49,50,53,54}",1.858838e-06
Fluorkyuygenite,Ca12Al14O32[(H2O)4F2],"{""Ca"": 12.0, ""Al"": 14.0, ""O"": 36.0, ""H"": 8.0, ""F"": 2.0}",1480.708,#FFFFFF,cubic,{51},3.906e-09
Fluorlamprophyllite,(SrNa)Ti2Na3Ti(Si2O7)2O2F2,"{""Sr"": 1.0, ""Na"": 4.0, ""Ti"": 3.0, ""Si"": 4.0, ""O"": 16.0, ""F"": 2.0}",729.501,#FFFFFF,monoclinic,{35},6.89e-10
Fluor-liddicoatite,Ca(Li2Al)Al6(Si6O18)(BO3)3(OH)3F,"{""Ca"": 1.0, ""Li"": 2.0, ""Al"": 7.0, ""Si"": 6.0, ""O"": 30.0, ""B"": 3.0, ""H"": 3.0, ""F"": 1.0}",945.764,#FFFFFF,hexagonal,{34},8.87e-10
Fluormacraeite,[(H2O)K]Mn2(Fe2Ti)(PO4)4(OF)(H2O)10·4H2O,"{""H"": 30.0, ""O"": 32.0, ""K"": 1.0, ""Mn"": 2.0, ""Fe"": 2.0, ""Ti"": 1.0, ""P"": 4.0, ""F"": 1.0}",993.633,#556B2F,monoclinic,{},5e-08
Fluoro-cannilloite,CaCa2(Mg4Al)(Si5Al3)O22F2,"{""Ca"": 3.0, ""Mg"": 4.0, ""Al"": 4.0, ""Si"": 5.0, ""O"": 22.0, ""F"": 2.0}",855.781,#FFFFFF,monoclinic,{31},1.404e-09
Fluorocronite,PbF2,"{""Pb"": 1.0, ""F"": 2.0}",245.196,#FFFFFF,cubic,{47},7.508e-09
Fluoro-edenite,NaCa2Mg5(Si7Al)O22F2,"{""Na"": 1.0, ""Ca"": 2.0, ""Mg"": 5.0, ""Si"": 7.0, ""Al"": 1.0, ""O"": 22.0, ""F"": 2.0}",838.222,#FFFFFF,monoclinic,"{8,19,20,31,34,35,40}",2.555143e-06
Fluorokinoshitalite,BaMg3Al2Si2O10F2,"{""Ba"": 1.0, ""Mg"": 3.0, ""Al"": 2.0, ""Si"": 2.0, ""O"": 10.0, ""F"": 2.0}",518.365,#FFFFFF,monoclinic,{32},1.214e-09
Fluoro-leakeite,NaNa2(Mg2Al2Li)Si8O22F2,"{""Na"": 3.0, ""Mg"": 2.0, ""Al"": 2.0, ""Li"": 1.0, ""Si"": 8.0, ""O"": 22.0, ""F"": 2.0}",793.138,#FFFFFF,monoclinic,{35},6.89e-10
Fluoro-nyboite,NaNa2(Mg3Al2)(Si7Al)O22F2,"{""Na"": 3.0, ""Mg"": 3.0, ""Al"": 3.0, ""Si"": 7.0, ""O"": 22.0, ""F"": 2.0}",809.4,#FFFFFF,monoclinic,"{17,35,36}",1.2211e-08
Fluoro-pargasite,NaCa2(Mg4Al)(Si6Al2)O22F2,"{""Na"": 1.0, ""Ca"": 2.0, ""Mg"": 4.0, ""Al"": 3.0, ""Si"": 6.0, ""O"": 22.0, ""F"": 2.0}",839.796,#FFFFFF,monoclinic,"{19,20,31,34}",1.761654e-06
Fluoro-pedrizite,NaLi2(Mg2Al2Li)Si8O22F2,"{""Na"": 1.0, ""Li"": 3.0, ""Mg"": 2.0, ""Al"": 2.0, ""Si"": 8.0, ""O"": 22.0, ""F"": 2.0}",761.038,#FFFFFF,monoclinic,{34},8.87e-10
Fluorophlogopite,KMg3(Si3Al)O10F2,"{""K"": 1.0, ""Mg"": 3.0, ""Si"": 3.0, ""Al"": 1.0, ""O"": 10.0, ""F"": 2.0}",421.236,#FFFFFF,hexagonal,"{11,31,35,36,40}",4.8792e-07
Fluoro-richterite,Na(NaCa)Mg5Si8O22F2,"{""Na"": 2.0, ""Ca"": 1.0, ""Mg"": 5.0, ""Si"": 8.0, ""O"": 22.0, ""F"": 2.0}",822.237,#FFFFFF,monoclinic,{5},5.319e-09
Fluoro-taramite,Na(NaCa)(Mg3Al2)(Si6Al2)O22F2,"{""Na"": 2.0, ""Ca"": 1.0, ""Mg"": 3.0, ""Al"": 4.0, ""Si"": 6.0, ""O"": 22.0, ""F"": 2.0}",825.385,#FFFFFF,monoclinic,{39},7.143e-09
Fluorotetraferriphlogopite,KMg3Fe3+Si3O10F2,"{""K"": 1.0, ""Mg"": 3.0, ""Fe"": 1.0, ""Si"": 3.0, ""O"": 10.0, ""F"": 2.0}",450.099,#556B2F,monoclinic,"{7,31,35,36,40}",4.78096e-07
Fluorowardite,NaAl3(PO4)2(OH)2F2·2H2O,"{""Na"": 1.0, ""Al"": 3.0, ""P"": 2.0, ""O"": 12.0, ""H"": 6.0, ""F"": 2.0}",401.916,#FFFFFF,tetragonal,{47},7.508e-09
Fluorphosphohedyphane,Ca2Pb3(PO4)3F,"{""Ca"": 2.0, ""Pb"": 3.0, ""P"": 3.0, ""O"": 12.0, ""F"": 1.0}",1005.664,#FFFFFF,hexagonal,{47},7.508e-09
Fluorpyromorphite,Pb5(PO4)3F,"{""Pb"": 5.0, ""P"": 3.0, ""O"": 12.0, ""F"": 1.0}",1339.908,#FFFFFF,hexagonal,{32},1.214e-09
Fluor-rewitzerite,[(H2O)K]Mn2(Al2Ti)(PO4)4(OF)(H2O)10·4H2O,"{""H"": 30.0, ""O"": 32.0, ""K"": 1.0, ""Mn"": 2.0, ""Al"": 2.0, ""Ti"": 1.0, ""P"": 4.0, ""F"": 1.0}",935.907,#FFFFFF,monoclinic,{},5e-08
Fluor-schorl,NaFe2+3Al6(Si6O18)(BO3)3(OH)3F,"{""Na"": 1.0, ""Fe"": 3.0, ""Al"": 6.0, ""Si"": 6.0, ""O"": 30.0, ""B"": 3.0, ""H"": 3.0, ""F"": 1.0}",1055.349,#556B2F,hexagonal,"{23,34,40}",5.59046e-07
Fluorsigaiite,Ca2Sr3(PO4)3F,"{""Ca"": 2.0, ""Sr"": 3.0, ""P"": 3.0, ""O"": 12.0, ""F"": 1.0}",646.924,#FFFFFF,hexagonal,{35},6.89e-10
Fluorstrophite,SrCaSr3(PO4)3F,"{""Sr"": 4.0, ""Ca"": 1.0, ""P"": 3.0, ""O"": 12.0, ""F"": 1.0}",694.466,#FFFFFF,hexagonal,{36},1.718e-09
Fluor-tsilaisite,NaMn2+3Al6(Si6O18)(BO3)3(OH)3F,"{""Na"": 1.0, ""Mn"": 3.0, ""Al"": 6.0, ""Si"": 6.0, ""O"": 30.0, ""B"": 3.0, ""H"": 3.0, ""F"": 1.0}",1052.628,#FFFFFF,hexagonal,{34},8.87e-10
Fluor-uvite,CaMg3(Al5Mg)(Si6O18)(BO3)3(OH)3F,"{""Ca"": 1.0, ""Mg"": 4.0, ""Al"": 5.0, ""Si"": 6.0, ""O"": 30.0, ""B"": 3.0, ""H"": 3.0, ""F"": 1.0}",975.14,#FFFFFF,hexagonal,"{23,34,40}",5.59046e-07
Fluorwavellite,Al3(PO4)2(OH)2F·5H2O,"{""Al"": 3.0, ""P"": 2.0, ""O"": 15.0, ""H"": 12.0, ""F"": 1.0}",413.973,#FFFFFF,orthorhombic,{47},7.508e-09
Flurlite,Zn2+Zn2+3Fe3+(PO4)3(OH)2(H2O)7·2H2O,"{""Zn"": 4.0, ""Fe"": 1.0, ""P"": 3.0, ""O"": 23.0, ""H"": 20.0}",798.424,#556B2F,monoclinic,"{23,34}",1.77652e-07
Foggite,CaAl(PO4)(OH)2·H2O,"{""Ca"": 1.0, ""Al"": 1.0, ""P"": 1.0, ""O"": 7.0, ""H"": 4.0}",214.059,#FFFFFF,orthorhombic,{47},1.5015e-08
Fogoite-(Y),Ca2Y2Na3Ti(Si2O7)2(OF)F2,"{""Ca"": 2.0, ""Y"": 2.0, ""Na"": 3.0, ""Ti"": 1.0, ""Si"": 4.0, ""O"": 15.0, ""F"": 3.0}",784.124,#FFFFFF,triclinic,{35},6.89e-10
Fontanite,Ca(UO2)3(CO3)2O2·6H2O,"{""Ca"": 1.0, ""U"": 3.0, ""O"": 20.0, ""C"": 2.0, ""H"": 12.0}",1110.266,#FFFFFF,monoclinic,{47},1.5015e-07
Foordite,Sn2+Nb2O6,"{""Sn"": 1.0, ""Nb"": 2.0, ""O"": 6.0}",400.516,#FFFFFF,monoclinic,"{26,34}",5.773e-08
Footemineite,Ca2Mn2+5Be4(PO4)6(OH)4·6H2O,"{""Ca"": 2.0, ""Mn"": 5.0, ""Be"": 4.0, ""P"": 6.0, ""O"": 34.0, ""H"": 16.0}",1136.8328,#FFFFFF,triclinic,{34},8.87e-10
Formanite-(Y),YTaO4,"{""Y"": 1.0, ""Ta"": 1.0, ""O"": 4.0}",333.852,#FFFFFF,monoclinic,"{26,34}",5.773e-08
Formicaite,Ca(CHOO)2,"{""Ca"": 1.0, ""C"": 2.0, ""H"": 2.0, ""O"": 4.0}",130.112,#FFFFFF,tetragonal,"{23,31}",1.786884e-06
Fornacite,CuPb2(CrO4)(AsO4)(OH),"{""Cu"": 1.0, ""Pb"": 2.0, ""Cr"": 1.0, ""O"": 9.0, ""As"": 1.0, ""H"": 1.0}",749.863,#FFFFFF,monoclinic,{47},1.5015e-07
Forsterite,Mg2(SiO4),"{""Mg"": 2.0, ""Si"": 1.0, ""O"": 4.0}",140.691,#FFFFFF,orthorhombic,"{1,3,4,5,6,7,8,9,20,26,31,36,38,40,57}",2.2968662e-05
Foshagite,Ca4(SiO3)3(OH)2,"{""Ca"": 4.0, ""Si"": 3.0, ""O"": 11.0, ""H"": 2.0}",422.572,#FFFFFF,triclinic,"{31,51}",1.38079e-07
Fougerite,Fe2+4Fe3+2(OH)12(CO3)·3H2O,"{""Fe"": 6.0, ""O"": 18.0, ""H"": 18.0, ""C"": 1.0}",653.207,#556B2F,hexagonal,"{47,56}",2.2008e-07
Francevillite,Ba(UO2)2(VO4)2·5H2O,"{""Ba"": 1.0, ""U"": 2.0, ""O"": 17.0, ""V"": 2.0, ""H"": 10.0}",997.337,#FFFFFF,orthorhombic,{47},1.5015e-07
Francisite,Cu3Bi(Se4+O3)2O2Cl,"{""Cu"": 3.0, ""Bi"": 1.0, ""Se"": 2.0, ""O"": 8.0, ""Cl"": 1.0}",721.002,#FFFFFF,orthorhombic,"{21,47}",2.76732e-07
Francoanellite,K3Al5(PO3OH)6(PO4)2·12H2O,"{""K"": 3.0, ""Al"": 5.0, ""P"": 8.0, ""O"": 44.0, ""H"": 30.0}",1234.192,#FFFFFF,hexagonal,"{47,52}",2.8904e-08
Francoisite-(Ce),Ce(UO2)3O(OH)(PO4)2·6H2O,"{""Ce"": 1.0, ""U"": 3.0, ""O"": 22.0, ""H"": 13.0, ""P"": 2.0}",1281.24,#FFFFFF,monoclinic,{47},1.5015e-08
Francoisite-(Nd),Nd(UO2)3O(OH)(PO4)2·6H2O,"{""Nd"": 1.0, ""U"": 3.0, ""O"": 22.0, ""H"": 13.0, ""P"": 2.0}",1285.36,#FFFFFF,monoclinic,{47},1.5015e-08
Franconite,NaNb2O5(OH)·3H2O,"{""Na"": 1.0, ""Nb"": 2.0, ""O"": 9.0, ""H"": 7.0}",359.849,#FFFFFF,monoclinic,{35},1.3774e-08
Frankamenite,K3Na3Ca5Si12O30F3(OH)·H2O,"{""K"": 3.0, ""Na"": 3.0, ""Ca"": 5.0, ""Si"": 12.0, ""O"": 32.0, ""F"": 3.0, ""H"": 3.0}",1295.66,#FFFFFF,triclinic,{35},6.89e-10
Frankdicksonite,BaF2,"{""Ba"": 1.0, ""F"": 2.0}",175.326,#FFFFFF,cubic,"{23,32,33}",8.9781e-08
Frankhawthorneite,Cu2Te6+O4(OH)2,"{""Cu"": 2.0, ""Te"": 1.0, ""O"": 6.0, ""H"": 2.0}",352.702,#FFFFFF,monoclinic,{47},1.5015e-07
Franklinfurnaceite,Ca2Mn2+3Mn3+Fe3+Zn2Si2O10(OH)8,"{""Ca"": 2.0, ""Mn"": 4.0, ""Fe"": 1.0, ""Zn"": 2.0, ""Si"": 2.0, ""O"": 18.0, ""H"": 8.0}",838.729,#556B2F,monoclinic,{32},1.214e-09
Franklinite,ZnFe3+2O4,"{""Zn"": 1.0, ""Fe"": 2.0, ""O"": 4.0}",241.066,#8B4513,cubic,"{26,32,40}",9.468661e-06
Franksousaite,PbCu(Se6+O4)(OH)2,"{""Pb"": 1.0, ""Cu"": 1.0, ""Se"": 1.0, ""O"": 6.0, ""H"": 2.0}",447.727,#FFFFFF,monoclinic,{47},1.5015e-07
Fransoletite,Ca3Be2(PO4)2(PO3OH)2·4H2O,"{""Ca"": 3.0, ""Be"": 2.0, ""P"": 4.0, ""O"": 20.0, ""H"": 10.0}",592.2144,#FFFFFF,monoclinic,"{34,47}",1.6788e-08
Freboldite,CoSe,"{""Co"": 1.0, ""Se"": 1.0}",137.904,#4169E1,hexagonal,{33},1.2547e-08
Fredrikssonite,Mg2Mn3+O2(BO3),"{""Mg"": 2.0, ""Mn"": 1.0, ""O"": 5.0, ""B"": 1.0}",194.353,#FFFFFF,orthorhombic,"{23,32}",8.9153e-08
Freedite,Cu1+Pb8(As3+O3)2O3Cl5,"{""Cu"": 1.0, ""Pb"": 8.0, ""As"": 2.0, ""O"": 9.0, ""Cl"": 5.0}",2192.231,#FFFFFF,monoclinic,{47},1.5015e-07
Freieslebenite,AgPbSbS3,"{""Ag"": 1.0, ""Pb"": 1.0, ""Sb"": 1.0, ""S"": 3.0}",533.01,#708090,monoclinic,"{14,33}",3.53e-09
Freitalite,C14H10,"{""C"": 14.0, ""H"": 10.0}",178.234,#FFFFFF,monoclinic,{54},4.2735e-08
Fresnoite,Ba2TiO(Si2O7),"{""Ba"": 2.0, ""Ti"": 1.0, ""O"": 8.0, ""Si"": 2.0}",506.689,#FFFFFF,tetragonal,{32},7.282e-09
Freudenbergite,Na(Ti4+3Fe3+)O8,"{""Na"": 1.0, ""Ti"": 3.0, ""Fe"": 1.0, ""O"": 8.0}",350.428,#556B2F,monoclinic,"{7,35,41}",2.16022e-07
Friedelite,Mn2+8Si6O15(OH)10,"{""Mn"": 8.0, ""Si"": 6.0, ""O"": 25.0, ""H"": 10.0}",1018.069,#FFFFFF,monoclinic,{32},1.214e-09
Friedrichite,Cu5Pb5Bi7S18,"{""Cu"": 5.0, ""Pb"": 5.0, ""Bi"": 7.0, ""S"": 18.0}",3393.67,#708090,orthorhombic,{33},2.51e-10
Friisite,Pb8Al3Si8O27Cl3,"{""Pb"": 8.0, ""Al"": 3.0, ""Si"": 8.0, ""O"": 27.0, ""Cl"": 3.0}",2501.549,#FFFFFF,hexagonal,{},1e-06
Frohbergite,FeTe2,"{""Fe"": 1.0, ""Te"": 2.0}",311.045,#8B4513,orthorhombic,{33},1.2547e-08
Frolovite,Ca[B(OH)4]2,"{""Ca"": 1.0, ""B"": 2.0, ""O"": 8.0, ""H"": 8.0}",197.754,#FFFFFF,triclinic,{23},1.758794e-06
Froodite,PdBi2,"{""Pd"": 1.0, ""Bi"": 2.0}",524.38,#D2B48C,monoclinic,"{33,37}",8.6621e-08
Fuchunite,Ba(C2H3O3)2(C2H4O3)2,"{""Ba"": 1.0, ""C"": 8.0, ""H"": 14.0, ""O"": 12.0}",439.518,#FFFFFF,monoclinic,{},1e-06
Fuenzalidaite,K3Na5Mg5(IO3)6(SO4)6·6H2O,"{""K"": 3.0, ""Na"": 5.0, ""Mg"": 5.0, ""I"": 6.0, ""O"": 48.0, ""S"": 6.0, ""H"": 12.0}",2087.577,#FFFFFF,hexagonal,"{25,47}",3.955e-09
Fuettererite,Pb3Cu2+6Te6+O6(OH)7Cl5,"{""Pb"": 3.0, ""Cu"": 6.0, ""Te"": 1.0, ""O"": 13.0, ""H"": 7.0, ""Cl"": 5.0}",1522.769,#FFFFFF,hexagonal,{47},1.5015e-07
Fukalite,Ca4Si2O6(CO3)(OH)2,"{""Ca"": 4.0, ""Si"": 2.0, ""O"": 11.0, ""C"": 1.0, ""H"": 2.0}",406.498,#FFFFFF,monoclinic,{31},2.809e-08
Fukuchilite,Cu3FeS8,"{""Cu"": 3.0, ""Fe"": 1.0, ""S"": 8.0}",502.963,#DAA520,cubic,{12},1.55e-09
Fulbrightite,Ca(VO)2(AsO4)2·4H2O,"{""Ca"": 1.0, ""V"": 2.0, ""O"": 14.0, ""As"": 2.0, ""H"": 8.0}",523.856,#FFFFFF,triclinic,{47},1.5015e-07
Fuloppite,Pb3Sb8S15,"{""Pb"": 3.0, ""Sb"": 8.0, ""S"": 15.0}",2076.58,#708090,monoclinic,{33},2.51e-10
Fuyuanite,Mg7Nb6O18(OH)8,"{""Mg"": 7.0, ""Nb"": 6.0, ""O"": 26.0, ""H"": 8.0}",1151.609,#FFFFFF,hexagonal,{},1e-06
Gabrielite,Tl2AgCu2As3S7,"{""Tl"": 2.0, ""Ag"": 1.0, ""Cu"": 2.0, ""As"": 3.0, ""S"": 7.0}",1092.908,#FFD700,triclinic,{12},1.55e-09
Gabrielsonite,PbFe3+(AsO3)O,"{""Pb"": 1.0, ""Fe"": 1.0, ""As"": 1.0, ""O"": 4.0}",401.963,#556B2F,orthorhombic,{32},2.4272e-08
Gadolinite-(Ce),Ce2Fe2+Be2O2(SiO4)2,"{""Ce"": 2.0, ""Fe"": 1.0, ""Be"": 2.0, ""O"": 10.0, ""Si"": 2.0}",570.2694,#556B2F,monoclinic,"{31,34,35}",5.9594e-08
Gadolinite-(Nd),Nd2Fe2+Be2O2(SiO4)2,"{""Nd"": 2.0, ""Fe"": 1.0, ""Be"": 2.0, ""O"": 10.0, ""Si"": 2.0}",578.5094,#556B2F,monoclinic,"{31,34,35}",5.9594e-08
Gadolinite-(Y),Y2Fe2+Be2O2(SiO4)2,"{""Y"": 2.0, ""Fe"": 1.0, ""Be"": 2.0, ""O"": 10.0, ""Si"": 2.0}",467.8414,#556B2F,monoclinic,"{31,34,35}",5.9594e-08
Gagarinite-(Ce),NaCaCeF6,"{""Na"": 1.0, ""Ca"": 1.0, ""Ce"": 1.0, ""F"": 6.0}",317.176,#FFFFFF,hexagonal,{35},6.89e-10
Gagarinite-(Y),NaCaYF6,"{""Na"": 1.0, ""Ca"": 1.0, ""Y"": 1.0, ""F"": 6.0}",265.962,#FFFFFF,hexagonal,{35},6.89e-10
Gageite,Mn2+21Si8O27(OH)20,"{""Mn"": 21.0, ""Si"": 8.0, ""O"": 47.0, ""H"": 20.0}",2150.491,#FFFFFF,orthorhombic,"{32,47}",8.721e-09
Gahnite,ZnAl2O4,"{""Zn"": 1.0, ""Al"": 2.0, ""O"": 4.0}",183.34,#FFFFFF,cubic,"{19,31,34,40,48}",4.4556089e-05
Gaidonnayite,Na2ZrSi3O9·2H2O,"{""Na"": 2.0, ""Zr"": 1.0, ""Si"": 3.0, ""O"": 11.0, ""H"": 4.0}",401.48,#FFFFFF,orthorhombic,"{35,36}",4.8138e-08
Gaitite,Ca2Zn(AsO4)2·2H2O,"{""Ca"": 2.0, ""Zn"": 1.0, ""As"": 2.0, ""O"": 10.0, ""H"": 4.0}",459.402,#FFFFFF,triclinic,{47},1.5015e-07
Galaxite,Mn2+Al2O4,"{""Mn"": 1.0, ""Al"": 2.0, ""O"": 4.0}",172.898,#FFB6C1,cubic,"{31,32,39,40}",4.7998e-07
Galeaclolusite,Al6(AsO4)3(OH)9(H2O)4·8H2O,"{""Al"": 6.0, ""As"": 3.0, ""O"": 33.0, ""H"": 33.0}",947.889,#FFFFFF,orthorhombic,{47},1.5015e-07
Galeite,Na15(SO4)5ClF4,"{""Na"": 15.0, ""S"": 5.0, ""O"": 20.0, ""Cl"": 1.0, ""F"": 4.0}",936.572,#FFFFFF,hexagonal,"{21,25}",3.484e-09
Galena,PbS,"{""Pb"": 1.0, ""S"": 1.0}",239.26,#708090,cubic,"{11,12,14,15,23,31,32,33,34,36,37,49,50,54}",5.9817e-08
Galenobismutite,PbBi2S4,"{""Pb"": 1.0, ""Bi"": 2.0, ""S"": 4.0}",753.4,#708090,orthorhombic,"{11,12,33}",7.357e-09
Galgenbergite-(Ce),CaCe2(CO3)4·H2O,"{""Ca"": 1.0, ""Ce"": 2.0, ""C"": 4.0, ""O"": 13.0, ""H"": 2.0}",578.365,#FFFFFF,triclinic,{47},1.5015e-07
Galileiite,NaFe2+4(PO4)3,"{""Na"": 1.0, ""Fe"": 4.0, ""P"": 3.0, ""O"": 12.0}",531.28,#556B2F,hexagonal,"{6,50,54}",1.2815e-08
Galkhaite,(Hg5Cu)CsAs4S12,"{""Hg"": 5.0, ""Cu"": 1.0, ""Cs"": 1.0, ""As"": 4.0, ""S"": 12.0}",1883.814,#FFD700,cubic,{33},2.51e-10
Galliskiite,Ca4Al2(PO4)2F8·5H2O,"{""Ca"": 4.0, ""Al"": 2.0, ""P"": 2.0, ""O"": 13.0, ""F"": 8.0, ""H"": 10.0}",646.275,#FFFFFF,triclinic,{22},2.024e-09
Gallite,CuGaS2,"{""Cu"": 1.0, ""Ga"": 1.0, ""S"": 2.0}",197.389,#A9A9A9,tetragonal,"{12,15,33}",8.051e-09
Gallobeudantite,PbGa3(AsO4)(SO4)(OH)6,"{""Pb"": 1.0, ""Ga"": 3.0, ""As"": 1.0, ""O"": 14.0, ""S"": 1.0, ""H"": 6.0}",753.385,#FFFFFF,hexagonal,{47},3.003e-09
Galuskinite,Ca7(SiO4)3(CO3),"{""Ca"": 7.0, ""Si"": 3.0, ""O"": 15.0, ""C"": 1.0}",616.797,#FFFFFF,monoclinic,{31},2.809e-08
Gamagarite,Ba2Fe3+(VO4)2(OH),"{""Ba"": 2.0, ""Fe"": 1.0, ""V"": 2.0, ""O"": 9.0, ""H"": 1.0}",577.388,#556B2F,monoclinic,"{22,32,47}",2.14908e-07
Gananite,BiF3,"{""Bi"": 1.0, ""F"": 3.0}",265.974,#D2B48C,cubic,{23},8.794e-08
Ganomalite,Pb9Ca6(Si2O7)4(SiO4)O,"{""Pb"": 9.0, ""Ca"": 6.0, ""Si"": 9.0, ""O"": 33.0}",2886.0,#FFFFFF,hexagonal,{32},2.4272e-08
Gaotaiite,Ir3Te8,"{""Ir"": 3.0, ""Te"": 8.0}",1597.46,#FFFFFF,cubic,{37},7.4074e-08
Garavellite,FeSbBiS4,"{""Fe"": 1.0, ""Sb"": 1.0, ""Bi"": 1.0, ""S"": 4.0}",514.825,#DAA520,orthorhombic,{33},2.51e-10
Garmite,CsLiMg2(Si4O10)F2,"{""Cs"": 1.0, ""Li"": 1.0, ""Mg"": 2.0, ""Si"": 4.0, ""O"": 10.0, ""F"": 2.0}",498.786,#FFFFFF,monoclinic,{34},8.87e-10
Garpenbergite,Mn6AsSbO10(OH)2,"{""Mn"": 6.0, ""As"": 1.0, ""Sb"": 1.0, ""O"": 12.0, ""H"": 2.0}",720.314,#FFFFFF,orthorhombic,{47},7.508e-09
Garrelsite,NaBa3B7Si2O16(OH)4,"{""Na"": 1.0, ""Ba"": 3.0, ""B"": 7.0, ""Si"": 2.0, ""O"": 20.0, ""H"": 4.0}",890.832,#FFFFFF,monoclinic,{23},1.758794e-06
Garronite-Ca,Ca3(Al6Si10O32)·14H2O,"{""Ca"": 3.0, ""Al"": 6.0, ""Si"": 10.0, ""O"": 46.0, ""H"": 28.0}",1327.154,#FFFFFF,tetragonal,{22},5.2632e-08