name,formula,elements,density,color,crystal
Laumontite,CaAl2Si4O12·4H2O,"{""Ca"": 1.0, ""Al"": 2.0, ""Si"": 4.0, ""O"": 16.0, ""H"": 8.0}",470.43,#FFFFFF,monoclinic
Lauraniite,Cu6Cd2(SO4)2(OH)12·5H2O,"{""Cu"": 6.0, ""Cd"": 2.0, ""S"": 2.0, ""O"": 25.0, ""H"": 22.0}",1092.367,#FFFFFF,monoclinic
Laurelite,Pb7F12Cl2,"{""Pb"": 7.0, ""F"": 12.0, ""Cl"": 2.0}",1749.276,#FFFFFF,hexagonal
Laurentianite,[NbO(H2O)]3(Si2O7)2[Na(H2O)2]3,"{""Nb"": 3.0, ""O"": 26.0, ""H"": 18.0, ""Si"": 4.0, ""Na"": 3.0}",894.146,#FFFFFF,hexagonal
Laurentthomasite,Mg2K(Be2Al)Si12O30,"{""Mg"": 2.0, ""K"": 1.0, ""Be"": 2.0, ""Al"": 1.0, ""Si"": 12.0, ""O"": 30.0}",949.7044,#FFFFFF,hexagonal
Laurionite,PbCl(OH),"{""Pb"": 1.0, ""Cl"": 1.0, ""O"": 1.0, ""H"": 1.0}",259.657,#FFFFFF,orthorhombic
Laurite,RuS2,"{""Ru"": 1.0, ""S"": 2.0}",165.19,#A9A9A9,cubic
Lausenite,Fe3+2(SO4)3·5H2O,"{""Fe"": 2.0, ""S"": 3.0, ""O"": 17.0, ""H"": 10.0}",489.933,#556B2F,monoclinic
Lautarite,Ca(IO3)2,"{""Ca"": 1.0, ""I"": 2.0, ""O"": 6.0}",389.872,#FFFFFF,monoclinic
Lautenthalite,PbCu4(SO4)2(OH)6·3H2O,"{""Pb"": 1.0, ""Cu"": 4.0, ""S"": 2.0, ""O"": 17.0, ""H"": 12.0}",809.583,#FFFFFF,monoclinic
Lautite,CuAsS,"{""Cu"": 1.0, ""As"": 1.0, ""S"": 1.0}",170.528,#FFD700,orthorhombic
Lavendulan,NaCaCu5(AsO4)4Cl·5H2O,"{""Na"": 1.0, ""Ca"": 1.0, ""Cu"": 5.0, ""As"": 4.0, ""O"": 21.0, ""Cl"": 1.0, ""H"": 10.0}",1061.995,#FFFFFF,monoclinic
Lavinskyite,K(LiCu)Cu6(Si4O11)2(OH)4,"{""K"": 1.0, ""Li"": 1.0, ""Cu"": 7.0, ""Si"": 8.0, ""O"": 26.0, ""H"": 4.0}",1135.546,#FFFFFF,orthorhombic
Lavrentievite,Hg3S2Cl2,"{""Hg"": 3.0, ""S"": 2.0, ""Cl"": 2.0}",736.79,#A9A9A9,triclinic
Lawrencite,FeCl2,"{""Fe"": 1.0, ""Cl"": 2.0}",126.745,#8B4513,hexagonal
Lawsonite,CaAl2(Si2O7)(OH)2·H2O,"{""Ca"": 1.0, ""Al"": 2.0, ""Si"": 2.0, ""O"": 10.0, ""H"": 4.0}",314.234,#FFFFFF,monoclinic
Lazaraskeite,Cu(C2H3O3)2,"{""Cu"": 1.0, ""C"": 4.0, ""H"": 6.0, ""O"": 6.0}",213.632,#FFFFFF,monoclinic
Lazarenkoite,CaFe3+As3+3O7·3H2O,"{""Ca"": 1.0, ""Fe"": 1.0, ""As"": 3.0, ""O"": 10.0, ""H"": 6.0}",486.727,#556B2F,orthorhombic
Lazaridisite,Cd3(SO4)3·8H2O,"{""Cd"": 3.0, ""S"": 3.0, ""O"": 20.0, ""H"": 16.0}",769.518,#FFFFFF,monoclinic
Lazulite,MgAl2(PO4)2(OH)2,"{""Mg"": 1.0, ""Al"": 2.0, ""P"": 2.0, ""O"": 10.0, ""H"": 2.0}",302.223,#FFFFFF,monoclinic
Lazurite,Na7Ca(Al6Si6O24)(SO4)(S3)1-·H2O,"{""Na"": 7.0, ""Ca"": 1.0, ""Al"": 6.0, ""Si"": 6.0, ""O"": 29.0, ""S"": 4.0, ""H"": 2.0}",1125.637,#FFFFFF,orthorhombic
Lead,Pb,"{""Pb"": 1.0}",207.2,#FFFFFF,cubic
Leadamalgam,HgPb2,"{""Hg"": 1.0, ""Pb"": 2.0}",614.99,#FFFFFF,tetragonal
Leadhillite,Pb4(SO4)(CO3)2(OH)2,"{""Pb"": 4.0, ""S"": 1.0, ""O"": 12.0, ""C"": 2.0, ""H"": 2.0}",1078.886,#FFFFFF,monoclinic
Lebedevite,K4Na14Cu14O8(AsO4)8Cl6,"{""K"": 4.0, ""Na"": 14.0, ""Cu"": 14.0, ""O"": 40.0, ""As"": 8.0, ""Cl"": 6.0}",2819.932,#FFFFFF,tetragonal
Lechatelierite,SiO2,"{""Si"": 1.0, ""O"": 2.0}",60.083,#FFFFFF,
Lechnerite,Ag10Cu4HgPb33Sb58S128,"{""Ag"": 10.0, ""Cu"": 4.0, ""Hg"": 1.0, ""Pb"": 33.0, ""Sb"": 58.0, ""S"": 128.0}",19536.834,#708090,triclinic
Lecontite,(NH4)Na(SO4)·2H2O,"{""N"": 1.0, ""H"": 8.0, ""Na"": 1.0, ""S"": 1.0, ""O"": 6.0}",173.115,#FFFFFF,orthorhombic
Lecoqite-(Y),Na3Y(CO3)3·6H2O,"{""Na"": 3.0, ""Y"": 1.0, ""C"": 3.0, ""O"": 15.0, ""H"": 12.0}",445.99,#FFFFFF,hexagonal
Lednevite,Cu[PO3(OH)]·H2O,"{""Cu"": 1.0, ""P"": 1.0, ""O"": 5.0, ""H"": 3.0}",177.539,#FFFFFF,monoclinic
Leesite,K(H2O)2[(UO2)4O2(OH)5]·3H2O,"{""K"": 1.0, ""H"": 15.0, ""O"": 20.0, ""U"": 4.0}",1326.318,#FFFFFF,orthorhombic
Lefontite,Fe2Al2Be(PO4)2(OH)6,"{""Fe"": 2.0, ""Al"": 2.0, ""Be"": 1.0, ""P"": 2.0, ""O"": 14.0, ""H"": 6.0}",466.6482,#556B2F,orthorhombic
Lehmannite,Na18Cu12TiO8(AsO4)8FCl5,"{""Na"": 18.0, ""Cu"": 12.0, ""Ti"": 1.0, ""O"": 40.0, ""As"": 8.0, ""F"": 1.0, ""Cl"": 5.0}",2659.823,#FFFFFF,monoclinic
Leightonite,K2Ca2Cu(SO4)4·2H2O,"{""K"": 2.0, ""Ca"": 2.0, ""Cu"": 1.0, ""S"": 4.0, ""O"": 18.0, ""H"": 4.0}",642.152,#FFFFFF,monoclinic
Leisingite,Cu2MgTe6+O6·6H2O,"{""Cu"": 2.0, ""Mg"": 1.0, ""Te"": 1.0, ""O"": 12.0, ""H"": 12.0}",483.081,#FFFFFF,hexagonal
Lemanskiite,NaCaCu5(AsO4)4Cl·3H2O,"{""Na"": 1.0, ""Ca"": 1.0, ""Cu"": 5.0, ""As"": 4.0, ""O"": 19.0, ""Cl"": 1.0, ""H"": 6.0}",1025.965,#FFFFFF,monoclinic
Lemoynite,Na2CaZr2Si10O26·5-6H2O,"{""Na"": 2.0, ""Ca"": 1.0, ""Zr"": 2.0, ""Si"": 10.0, ""O"": 32.0, ""H"": 12.0}",1073.42,#FFFFFF,monoclinic
Lenaite,AgFeS2,"{""Ag"": 1.0, ""Fe"": 1.0, ""S"": 2.0}",227.835,#DAA520,tetragonal
Lengenbachite,Ag4Cu2Pb18As12S39,"{""Ag"": 4.0, ""Cu"": 2.0, ""Pb"": 18.0, ""As"": 12.0, ""S"": 39.0}",6437.576,#708090,triclinic
Leningradite,PbCu3(VO4)2Cl2,"{""Pb"": 1.0, ""Cu"": 3.0, ""V"": 2.0, ""O"": 8.0, ""Cl"": 2.0}",698.614,#FFFFFF,orthorhombic
Lenoblite,V4+2O4·2H2O,"{""V"": 2.0, ""O"": 6.0, ""H"": 4.0}",201.91,#FFFFFF,
Leogangite,Cu10(AsO4)4(SO4)(OH)6·8H2O,"{""Cu"": 10.0, ""As"": 4.0, ""O"": 34.0, ""S"": 1.0, ""H"": 22.0}",1533.35,#FFFFFF,monoclinic
Leonardsenite,MgAlF5·2H2O,"{""Mg"": 1.0, ""Al"": 1.0, ""F"": 5.0, ""H"": 4.0, ""O"": 2.0}",182.307,#FFFFFF,orthorhombic
Leonite,K2Mg(SO4)2·4H2O,"{""K"": 2.0, ""Mg"": 1.0, ""S"": 2.0, ""O"": 12.0, ""H"": 8.0}",366.673,#FFFFFF,monoclinic
Leoszilardite,Na6Mg(UO2)2(CO3)6·6H2O,"{""Na"": 6.0, ""Mg"": 1.0, ""U"": 2.0, ""O"": 28.0, ""C"": 6.0, ""H"": 12.0}",1170.439,#FFFFFF,monoclinic
Lepersonnite-(Gd),CaGd2(UO2)24(CO3)8Si4O28·60H2O,"{""Ca"": 1.0, ""Gd"": 2.0, ""U"": 24.0, ""O"": 160.0, ""C"": 8.0, ""Si"": 4.0, ""H"": 120.0}",8956.526,#FFFFFF,orthorhombic
Lepersonnite-(Nd),Nd4(UO2)24(SiO4)4(CO3)8(OH)28·48H2O,"{""Nd"": 4.0, ""U"": 24.0, ""O"": 164.0, ""Si"": 4.0, ""C"": 8.0, ""H"": 124.0}",9246.936,#FFFFFF,orthorhombic
Lepidocrocite,Fe3+O(OH),"{""Fe"": 1.0, ""O"": 2.0, ""H"": 1.0}",88.851,#8B4513,orthorhombic
Lermontovite,U4+(PO4)(OH)·H2O,"{""U"": 1.0, ""P"": 1.0, ""O"": 6.0, ""H"": 3.0}",368.022,#FFFFFF,orthorhombic
Letovicite,(NH4)3H(SO4)2,"{""N"": 3.0, ""H"": 13.0, ""S"": 2.0, ""O"": 8.0}",247.237,#FFFFFF,monoclinic
Leucite,K(AlSi2O6),"{""K"": 1.0, ""Al"": 1.0, ""Si"": 2.0, ""O"": 6.0}",218.244,#FFFFFF,cubic
Leucophanite,NaCaBeSi2O6F,"{""Na"": 1.0, ""Ca"": 1.0, ""Be"": 1.0, ""Si"": 2.0, ""O"": 6.0, ""F"": 1.0}",243.2422,#FFFFFF,triclinic
Leucophosphite,KFe3+2(PO4)2(OH)·2H2O,"{""K"": 1.0, ""Fe"": 2.0, ""P"": 2.0, ""O"": 11.0, ""H"": 5.0}",393.765,#556B2F,monoclinic
Leucosphenite,Na4BaTi2B2Si10O30,"{""Na"": 4.0, ""Ba"": 1.0, ""Ti"": 2.0, ""B"": 2.0, ""Si"": 10.0, ""O"": 30.0}",1107.464,#FFFFFF,monoclinic
Levantite,KCa3Al2(SiO4)(Si2O7)(PO4),"{""K"": 1.0, ""Ca"": 3.0, ""Al"": 2.0, ""Si"": 3.0, ""O"": 15.0, ""P"": 1.0}",568.51,#FFFFFF,monoclinic
Leverettite,Cu3CoCl2(OH)6,"{""Cu"": 3.0, ""Co"": 1.0, ""Cl"": 2.0, ""O"": 6.0, ""H"": 6.0}",422.513,#FFFFFF,hexagonal
Levinsonite-(Y),YAl(SO4)2(C2O4)·12H2O,"{""Y"": 1.0, ""Al"": 1.0, ""S"": 2.0, ""O"": 24.0, ""C"": 2.0, ""H"": 24.0}",612.198,#FFFFFF,monoclinic
Levyne-Ca,Ca3(Si12Al6)O36·18H2O,"{""Ca"": 3.0, ""Si"": 12.0, ""Al"": 6.0, ""O"": 54.0, ""H"": 36.0}",1519.38,#FFFFFF,hexagonal
Levyne-Na,Na6(Si12Al6)O36·18H2O,"{""Na"": 6.0, ""Si"": 12.0, ""Al"": 6.0, ""O"": 54.0, ""H"": 36.0}",1537.086,#FFFFFF,hexagonal
Leybovite-K,KCuNa(MgFe3+)(AsO4)3,"{""K"": 1.0, ""Cu"": 1.0, ""Na"": 1.0, ""Mg"": 1.0, ""Fe"": 1.0, ""As"": 3.0, ""O"": 12.0}",622.538,#556B2F,monoclinic
Leydetite,Fe(UO2)(SO4)2·11H2O,"{""Fe"": 1.0, ""U"": 1.0, ""O"": 21.0, ""S"": 2.0, ""H"": 22.0}",716.15,#556B2F,monoclinic
Lianbinite,(NH4)(C2H3O3)(C2H4O3),"{""N"": 1.0, ""H"": 11.0, ""C"": 4.0, ""O"": 6.0}",169.133,#FFFFFF,monoclinic
Liandratite,U6+Nb2O8,"{""U"": 1.0, ""Nb"": 2.0, ""O"": 8.0}",551.834,#ADFF2F,hexagonal
Liangjunite,K2(Mo2O5)(SO4)2·3H2O,"{""K"": 2.0, ""Mo"": 2.0, ""O"": 16.0, ""S"": 2.0, ""H"": 6.0}",596.248,#FFFFFF,triclinic
Liberite,Li2Be(SiO4),"{""Li"": 2.0, ""Be"": 1.0, ""Si"": 1.0, ""O"": 4.0}",114.9732,#FFFFFF,monoclinic
Libethenite,Cu2(PO4)(OH),"{""Cu"": 2.0, ""P"": 1.0, ""O"": 5.0, ""H"": 1.0}",239.069,#FFFFFF,orthorhombic
Liddicoatite,Ca(Li2Al)Al6(Si6O18)(BO3)3(OH)3(OH),"{""Ca"": 1.0, ""Li"": 2.0, ""Al"": 7.0, ""Si"": 6.0, ""O"": 31.0, ""B"": 3.0, ""H"": 4.0}",943.773,#FFFFFF,hexagonal
Liebauite,Ca3Cu5Si9O26,"{""Ca"": 3.0, ""Cu"": 5.0, ""Si"": 9.0, ""O"": 26.0}",1106.703,#FFFFFF,monoclinic
Liebenbergite,Ni2(SiO4),"{""Ni"": 2.0, ""Si"": 1.0, ""O"": 4.0}",209.467,#7FFF00,orthorhombic
Liebermannite,KAlSi3O8,"{""K"": 1.0, ""Al"": 1.0, ""Si"": 3.0, ""O"": 8.0}",278.327,#FFFFFF,tetragonal
Liebigite,Ca2(UO2)(CO3)3·11H2O,"{""Ca"": 2.0, ""U"": 1.0, ""O"": 22.0, ""C"": 3.0, ""H"": 22.0}",728.373,#FFFFFF,orthorhombic
Liguowuite,WO3,"{""W"": 1.0, ""O"": 3.0}",231.837,#FFFFFF,monoclinic
Likasite,Cu3(NO3)(OH)5·2H2O,"{""Cu"": 3.0, ""N"": 1.0, ""O"": 10.0, ""H"": 9.0}",373.707,#FFFFFF,orthorhombic
Lileyite,Ba2Ti2Na(NaFe2+)Mg(Si2O7)2O2F2,"{""Ba"": 2.0, ""Ti"": 2.0, ""Na"": 2.0, ""Fe"": 1.0, ""Mg"": 1.0, ""Si"": 4.0, ""O"": 16.0, ""F"": 2.0}",902.844,#556B2F,monoclinic
Lime,CaO,"{""Ca"": 1.0, ""O"": 1.0}",56.077,#FFFFFF,cubic
Limousinite,BaCa[Be4P4O16]·6H2O,"{""Ba"": 1.0, ""Ca"": 1.0, ""Be"": 4.0, ""P"": 4.0, ""O"": 22.0, ""H"": 12.0}",701.4268,#FFFFFF,monoclinic
Linarite,CuPb(SO4)(OH)2,"{""Cu"": 1.0, ""Pb"": 1.0, ""S"": 1.0, ""O"": 6.0, ""H"": 2.0}",400.816,#FFFFFF,monoclinic
Lindackerite,Cu5(AsO4)2(AsO3OH)2·9H2O,"{""Cu"": 5.0, ""As"": 4.0, ""O"": 25.0, ""H"": 20.0}",1037.553,#FFFFFF,triclinic
Lindgrenite,Cu3(Mo6+O4)2(OH)2,"{""Cu"": 3.0, ""Mo"": 2.0, ""O"": 10.0, ""H"": 2.0}",544.544,#FFFFFF,monoclinic
Lindstromite,Pb3Cu3Bi7S15,"{""Pb"": 3.0, ""Cu"": 3.0, ""Bi"": 7.0, ""S"": 15.0}",2755.998,#708090,orthorhombic
Linekite,K2Ca3[(UO2)(CO3)3]2·8H2O,"{""K"": 2.0, ""Ca"": 3.0, ""U"": 2.0, ""O"": 30.0, ""C"": 6.0, ""H"": 16.0}",1242.654,#FFFFFF,orthorhombic
Lingbaoite,AgTe3,"{""Ag"": 1.0, ""Te"": 3.0}",490.67,#C0C0C0,hexagonal
Lingunite,NaAlSi3O8,"{""Na"": 1.0, ""Al"": 1.0, ""Si"": 3.0, ""O"": 8.0}",262.219,#FFFFFF,tetragonal
Linnaeite,Co2+Co3+2S4,"{""Co"": 3.0, ""S"": 4.0}",305.039,#A9A9A9,cubic
Lintisite,Na3LiTi2O2(SiO3)4·2H2O,"{""Na"": 3.0, ""Li"": 1.0, ""Ti"": 2.0, ""O"": 16.0, ""Si"": 4.0, ""H"": 4.0}",544.0,#FFFFFF,monoclinic
Linzhiite,FeSi2,"{""Fe"": 1.0, ""Si"": 2.0}",112.015,#8B4513,tetragonal
Liottite,Na16Ca8Si18Al18O72(SO4)5Cl4,"{""Na"": 16.0, ""Ca"": 8.0, ""Si"": 18.0, ""Al"": 18.0, ""O"": 92.0, ""S"": 5.0, ""Cl"": 4.0}",3453.678,#FFFFFF,hexagonal
Lipscombite,Fe2+Fe3+2(PO4)2(OH)2,"{""Fe"": 3.0, ""P"": 2.0, ""O"": 10.0, ""H"": 2.0}",391.489,#556B2F,unknown
Liroconite,Cu2Al(AsO4)(OH)4·4H2O,"{""Cu"": 2.0, ""Al"": 1.0, ""As"": 1.0, ""O"": 12.0, ""H"": 12.0}",433.08,#FFFFFF,monoclinic
Lisanite,CaNiP2O7,"{""Ca"": 1.0, ""Ni"": 1.0, ""P"": 2.0, ""O"": 7.0}",272.712,#FFFFFF,triclinic
Lisetite,Na2CaAl4(SiO4)4,"{""Na"": 2.0, ""Ca"": 1.0, ""Al"": 4.0, ""Si"": 4.0, ""O"": 16.0}",562.31,#FFFFFF,orthorhombic
Lisiguangite,CuPtBiS3,"{""Cu"": 1.0, ""Pt"": 1.0, ""Bi"": 1.0, ""S"": 3.0}",563.786,#A9A9A9,orthorhombic
Lisitsynite,KBSi2O6,"{""K"": 1.0, ""B"": 1.0, ""Si"": 2.0, ""O"": 6.0}",202.072,#FFFFFF,orthorhombic
Lislkirchnerite,Pb6Al(OH)8Cl2(NO3)5·2H2O,"{""Pb"": 6.0, ""Al"": 1.0, ""O"": 25.0, ""H"": 12.0, ""Cl"": 2.0, ""N"": 5.0}",1823.188,#FFFFFF,monoclinic
Litharge,PbO,"{""Pb"": 1.0, ""O"": 1.0}",223.199,#FFFFFF,tetragonal
Lithiophosphate,Li3(PO4),"{""Li"": 3.0, ""P"": 1.0, ""O"": 4.0}",115.79,#FFFFFF,orthorhombic
Lithiotantite,LiTa3O8,"{""Li"": 1.0, ""Ta"": 3.0, ""O"": 8.0}",677.782,#FFFFFF,monoclinic
Lithiowodginite,LiTa3O8,"{""Li"": 1.0, ""Ta"": 3.0, ""O"": 8.0}",677.782,#FFFFFF,monoclinic
Lithosite,K3Al2Si4O12(OH),"{""K"": 3.0, ""Al"": 2.0, ""Si"": 4.0, ""O"": 13.0, ""H"": 1.0}",492.593,#FFFFFF,monoclinic
Litidionite,KNaCuSi4O10,"{""K"": 1.0, ""Na"": 1.0, ""Cu"": 1.0, ""Si"": 4.0, ""O"": 10.0}",397.964,#FFFFFF,triclinic
Litochlebite,Ag2PbBi4Se8,"{""Ag"": 2.0, ""Pb"": 1.0, ""Bi"": 4.0, ""Se"": 8.0}",1890.628,#FFFFFF,monoclinic
Litvinskite,Na3ZrSi6O13(OH)5,"{""Na"": 3.0, ""Zr"": 1.0, ""Si"": 6.0, ""O"": 18.0, ""H"": 5.0}",621.726,#FFFFFF,monoclinic
Liuite,FeTiO3,"{""Fe"": 1.0, ""Ti"": 1.0, ""O"": 3.0}",151.709,#8B4513,orthorhombic
Liveingite,Pb20As24S56,"{""Pb"": 20.0, ""As"": 24.0, ""S"": 56.0}",7737.488,#708090,monoclinic
Livingstonite,HgSb4S6(S)2,"{""Hg"": 1.0, ""Sb"": 4.0, ""S"": 8.0}",944.11,#A9A9A9,monoclinic
Lizardite,Mg3Si2O5(OH)4,"{""Mg"": 3.0, ""Si"": 2.0, ""O"": 9.0, ""H"": 4.0}",277.108,#FFFFFF,triclinic
Llantenesite,Cu6Al[SeO4](OH)12Cl·3H2O,"{""Cu"": 6.0, ""Al"": 1.0, ""Se"": 1.0, ""O"": 19.0, ""H"": 18.0, ""Cl"": 1.0}",844.804,#FFFFFF,hexagonal
Lobanovite,K2Na(Fe2+4Mg2Na)Ti2(Si4O12)2O2(OH)4,"{""K"": 2.0, ""Na"": 2.0, ""Fe"": 4.0, ""Mg"": 2.0, ""Ti"": 2.0, ""Si"": 8.0, ""O"": 30.0, ""H"": 4.0}",1200.582,#556B2F,monoclinic
Lokkaite-(Y),CaY4(CO3)7·9H2O,"{""Ca"": 1.0, ""Y"": 4.0, ""C"": 7.0, ""O"": 30.0, ""H"": 18.0}",977.893,#FFFFFF,orthorhombic
Lollingite,FeAs2,"{""Fe"": 1.0, ""As"": 2.0}",205.689,#8B4513,orthorhombic
Lomonosovite,Na6Na2Ti2Na2Ti2(Si2O7)2(PO4)2O4,"{""Na"": 10.0, ""Ti"": 4.0, ""Si"": 4.0, ""O"": 26.0, ""P"": 2.0}",1011.63,#FFFFFF,triclinic
Londonite,CsBe4Al4(B11Be)O28,"{""Cs"": 1.0, ""Be"": 5.0, ""Al"": 4.0, ""B"": 11.0, ""O"": 28.0}",852.781,#FFFFFF,cubic
Lonecreekite,(NH4)Fe3+(SO4)2·12H2O,"{""N"": 1.0, ""H"": 28.0, ""Fe"": 1.0, ""S"": 2.0, ""O"": 20.0}",482.176,#556B2F,cubic
Lonsdaleite,C,"{""C"": 1.0}",12.011,#FFFFFF,hexagonal
Loomisite,Ba[Be2P2O8]·H2O,"{""Ba"": 1.0, ""Be"": 2.0, ""P"": 2.0, ""O"": 9.0, ""H"": 2.0}",363.3094,#FFFFFF,monoclinic
Lopatkaite,Pb5Sb3AsS11,"{""Pb"": 5.0, ""Sb"": 3.0, ""As"": 1.0, ""S"": 11.0}",1828.862,#708090,monoclinic
Lopezite,K2Cr2O7,"{""K"": 2.0, ""Cr"": 2.0, ""O"": 7.0}",294.181,#228B22,triclinic
Lorandite,TlAsS2,"{""Tl"": 1.0, ""As"": 1.0, ""S"": 2.0}",343.422,#FFD700,monoclinic
Lorenzenite,Na2Ti2O3(Si2O6),"{""Na"": 2.0, ""Ti"": 2.0, ""O"": 9.0, ""Si"": 2.0}",341.875,#FFFFFF,orthorhombic
Loudounite,NaCa5Zr4Si16O40(OH)11·8H2O,"{""Na"": 1.0, ""Ca"": 5.0, ""Zr"": 4.0, ""Si"": 16.0, ""O"": 59.0, ""H"": 27.0}",2008.793,#FFFFFF,
Loughlinite,Na2Mg3Si6O16·8H2O,"{""Na"": 2.0, ""Mg"": 3.0, ""Si"": 6.0, ""O"": 24.0, ""H"": 16.0}",687.509,#FFFFFF,
Louisfuchsite,Ca2(Mg4Ti2)(Al4Si2)O20,"{""Ca"": 2.0, ""Mg"": 4.0, ""Ti"": 2.0, ""Al"": 4.0, ""Si"": 2.0, ""O"": 20.0}",757.188,#FFFFFF,triclinic
Lovdarite,K2Na6Be4Si14O36·9H2O,"{""K"": 2.0, ""Na"": 6.0, ""Be"": 4.0, ""Si"": 14.0, ""O"": 45.0, ""H"": 18.0}",1383.4738,#FFFFFF,orthorhombic
Lovozerite,Na3CaZrSi6O15(OH)3,"{""Na"": 3.0, ""Ca"": 1.0, ""Zr"": 1.0, ""Si"": 6.0, ""O"": 18.0, ""H"": 3.0}",659.788,#FFFFFF,hexagonal
Loweite,Na12Mg7(SO4)13·15H2O,"{""Na"": 12.0, ""Mg"": 7.0, ""S"": 13.0, ""O"": 67.0, ""H"": 30.0}",1964.968,#FFFFFF,hexagonal
Luanheite,Ag3Hg,"{""Ag"": 3.0, ""Hg"": 1.0}",524.2,#C0C0C0,hexagonal
Luberoite,Pt5Se4,"{""Pt"": 5.0, ""Se"": 4.0}",1291.284,#FFFFFF,monoclinic
Lucasite-(Ce),CeTi2O5(OH),"{""Ce"": 1.0, ""Ti"": 2.0, ""O"": 6.0, ""H"": 1.0}",332.856,#FFFFFF,monoclinic
Lucasite-(La),LaTi2O5(OH),"{""La"": 1.0, ""Ti"": 2.0, ""O"": 6.0, ""H"": 1.0}",331.646,#FFFFFF,monoclinic
Lucchesiite,CaFe2+3Al6(Si6O18)(BO3)3(OH)3O,"{""Ca"": 1.0, ""Fe"": 3.0, ""Al"": 6.0, ""Si"": 6.0, ""O"": 31.0, ""B"": 3.0, ""H"": 3.0}",1069.438,#556B2F,hexagonal
Luddenite,Cu2Pb2Si5O14·14H2O,"{""Cu"": 2.0, ""Pb"": 2.0, ""Si"": 5.0, ""O"": 28.0, ""H"": 28.0}",1158.113,#FFFFFF,monoclinic
Ludjibaite,Cu5(PO4)2(OH)4,"{""Cu"": 5.0, ""P"": 2.0, ""O"": 12.0, ""H"": 4.0}",575.698,#FFFFFF,triclinic
Ludlamite,Fe2+3(PO4)2·4H2O,"{""Fe"": 3.0, ""P"": 2.0, ""O"": 12.0, ""H"": 8.0}",429.535,#556B2F,monoclinic
Ludlockite,PbFe3+4As3+10O22,"{""Pb"": 1.0, ""Fe"": 4.0, ""As"": 10.0, ""O"": 22.0}",1531.778,#556B2F,triclinic
Ludwigite,Mg2Fe3+O2(BO3),"{""Mg"": 2.0, ""Fe"": 1.0, ""O"": 5.0, ""B"": 1.0}",195.26,#556B2F,orthorhombic
Lueshite,NaNbO3,"{""Na"": 1.0, ""Nb"": 1.0, ""O"": 3.0}",163.893,#FFFFFF,orthorhombic
Luetheite,CuAl(AsO4)(OH)2,"{""Cu"": 1.0, ""Al"": 1.0, ""As"": 1.0, ""O"": 6.0, ""H"": 2.0}",263.46,#FFFFFF,monoclinic
Lukechangite-(Ce),Na3Ce2(CO3)4F,"{""Na"": 3.0, ""Ce"": 2.0, ""C"": 4.0, ""O"": 12.0, ""F"": 1.0}",608.24,#FFFFFF,hexagonal
Lukkulaisvaaraite,Pd14Ag2Te9,"{""Pd"": 14.0, ""Ag"": 2.0, ""Te"": 9.0}",2854.02,#C0C0C0,tetragonal
Lulzacite,Sr2Fe2+3Al4(PO4)4(OH)10,"{""Sr"": 2.0, ""Fe"": 3.0, ""Al"": 4.0, ""P"": 4.0, ""O"": 26.0, ""H"": 10.0}",1000.653,#556B2F,triclinic
Lumsdenite,NaCa3Mg2(As3+V4+2V5+10As5+6O51)·45H2O,"{""Na"": 1.0, ""Ca"": 3.0, ""Mg"": 2.0, ""As"": 7.0, ""V"": 12.0, ""O"": 96.0, ""H"": 90.0}",2954.216,#FFFFFF,triclinic
Luneburgite,Mg3[B2(OH)6(PO4)2]·6H2O,"{""Mg"": 3.0, ""B"": 2.0, ""O"": 20.0, ""H"": 18.0, ""P"": 2.0}",494.607,#FFFFFF,triclinic
Luogufengite,Fe2O3,"{""Fe"": 2.0, ""O"": 3.0}",159.687,#8B4513,orthorhombic
Lussierite,Na10[(UO2)(SO4)4](SO4)2(H2O)3,"{""Na"": 10.0, ""U"": 1.0, ""O"": 29.0, ""S"": 6.0, ""H"": 6.0}",1130.309,#FFFFFF,monoclinic
Luxembourgite,AgCuPbBi4Se8,"{""Ag"": 1.0, ""Cu"": 1.0, ""Pb"": 1.0, ""Bi"": 4.0, ""Se"": 8.0}",1846.304,#FFFFFF,monoclinic
Luzonite,Cu3AsS4,"{""Cu"": 3.0, ""As"": 1.0, ""S"": 4.0}",393.8,#FFD700,tetragonal
Lyonsite,Cu2+3Fe3+4(VO4)6,"{""Cu"": 3.0, ""Fe"": 4.0, ""V"": 6.0, ""O"": 24.0}",1103.646,#556B2F,orthorhombic
Macaulayite,Fe3+24Si4O43(OH)2,"{""Fe"": 24.0, ""Si"": 4.0, ""O"": 45.0, ""H"": 2.0}",2174.591,#556B2F,monoclinic
Macdonaldite,BaCa4Si16O36(OH)2·10H2O,"{""Ba"": 1.0, ""Ca"": 4.0, ""Si"": 16.0, ""O"": 48.0, ""H"": 22.0}",1537.13,#FFFFFF,orthorhombic
Macedonite,PbTiO3,"{""Pb"": 1.0, ""Ti"": 1.0, ""O"": 3.0}",303.064,#FFFFFF,orthorhombic
Machatschkiite,Ca6(AsO4)(AsO3OH)3(PO4)·15H2O,"{""Ca"": 6.0, ""As"": 4.0, ""O"": 35.0, ""H"": 33.0, ""P"": 1.0}",1164.359,#FFFFFF,hexagonal
Machiite,Al2Ti3O9,"{""Al"": 2.0, ""Ti"": 3.0, ""O"": 9.0}",341.556,#FFFFFF,monoclinic
Macivorite,(NH4)3Al5(PO3OH)6(PO4)2·18H2O,"{""N"": 3.0, ""H"": 54.0, ""Al"": 5.0, ""P"": 8.0, ""O"": 50.0}",1279.105,#FFFFFF,hexagonal
Mackayite,Fe3+Te4+2O5(OH),"{""Fe"": 1.0, ""Te"": 2.0, ""O"": 6.0, ""H"": 1.0}",408.047,#556B2F,tetragonal
Mackinawite,FeS,"{""Fe"": 1.0, ""S"": 1.0}",87.905,#DAA520,tetragonal
Macphersonite,Pb4(SO4)(CO3)2(OH)2,"{""Pb"": 4.0, ""S"": 1.0, ""O"": 12.0, ""C"": 2.0, ""H"": 2.0}",1078.886,#FFFFFF,orthorhombic
Macquartite,Cu2Pb7(CrO4)4(SiO4)2(OH)2,"{""Cu"": 2.0, ""Pb"": 7.0, ""Cr"": 4.0, ""O"": 26.0, ""Si"": 2.0, ""H"": 2.0}",2259.636,#FFFFFF,monoclinic
Madeiraite,Na2Ca2Fe2Zr2(Si2O7)2O2F2,"{""Na"": 2.0, ""Ca"": 2.0, ""Fe"": 2.0, ""Zr"": 2.0, ""Si"": 4.0, ""O"": 16.0, ""F"": 2.0}",826.594,#556B2F,monoclinic
Magadiite,Na2Si14O28(OH)2·8H2O,"{""Na"": 2.0, ""Si"": 14.0, ""O"": 38.0, ""H"": 18.0}",1065.276,#FFFFFF,monoclinic
Magbasite,KBaFe3+Mg7Si8O22(OH)2F6,"{""K"": 1.0, ""Ba"": 1.0, ""Fe"": 1.0, ""Mg"": 7.0, ""Si"": 8.0, ""O"": 24.0, ""H"": 2.0, ""F"": 6.0}",1127.068,#556B2F,orthorhombic
Magganasite,CuFe3+3O(AsO4)3,"{""Cu"": 1.0, ""Fe"": 3.0, ""O"": 13.0, ""As"": 3.0}",663.834,#556B2F,triclinic
Maghagendorfite,Na2MgFe2+Fe3+(PO4)3,"{""Na"": 2.0, ""Mg"": 1.0, ""Fe"": 2.0, ""P"": 3.0, ""O"": 12.0}",466.885,#556B2F,
Maghrebite,MgAl2(AsO4)2(OH)2·8H2O,"{""Mg"": 1.0, ""Al"": 2.0, ""As"": 2.0, ""O"": 18.0, ""H"": 18.0}",534.239,#FFFFFF,triclinic
Magnanelliite,K3Fe3+2(SO4)4(OH)(H2O)2,"{""K"": 3.0, ""Fe"": 2.0, ""S"": 4.0, ""O"": 19.0, ""H"": 5.0}",666.245,#556B2F,monoclinic
Magneliite,Ti3+2Ti4+2O7,"{""Ti"": 4.0, ""O"": 7.0}",303.461,#FFFFFF,triclinic
Magnesioalterite,Mg2Fe3+4(SO4)4(C2O4)2(OH)4·17H2O,"{""Mg"": 2.0, ""Fe"": 4.0, ""S"": 4.0, ""O"": 45.0, ""C"": 4.0, ""H"": 38.0}",1206.533,#556B2F,monoclinic
Magnesio-arfvedsonite,NaNa2(Mg4Fe3+)Si8O22(OH)2,"{""Na"": 3.0, ""Mg"": 4.0, ""Fe"": 1.0, ""Si"": 8.0, ""O"": 24.0, ""H"": 2.0}",832.707,#556B2F,monoclinic
Magnesioaubertite,MgAl(SO4)2Cl·14H2O,"{""Mg"": 1.0, ""Al"": 1.0, ""S"": 2.0, ""O"": 22.0, ""Cl"": 1.0, ""H"": 28.0}",531.059,#FFFFFF,triclinic
Magnesiobeltrandoite-2N3S,(Mg6Al2)(Al18Fe3+2)O38(OH)2,"{""Mg"": 6.0, ""Al"": 20.0, ""Fe"": 2.0, ""O"": 40.0, ""H"": 2.0}",1439.136,#556B2F,hexagonal
Magnesiocarpholite,MgAl2Si2O6(OH)4,"{""Mg"": 1.0, ""Al"": 2.0, ""Si"": 2.0, ""O"": 10.0, ""H"": 4.0}",298.461,#FFFFFF,orthorhombic
Magnesiochloritoid,MgAl2O(SiO4)(OH)2,"{""Mg"": 1.0, ""Al"": 2.0, ""O"": 7.0, ""Si"": 1.0, ""H"": 2.0}",220.363,#FFFFFF,monoclinic