name,formula,elements,density,color,crystal
Bredigite,Ca7Mg(SiO4)4,"{""Ca"": 7.0, ""Mg"": 1.0, ""Si"": 4.0, ""O"": 16.0}",673.175,#FFFFFF,orthorhombic
Breithauptite,NiSb,"{""Ni"": 1.0, ""Sb"": 1.0}",180.453,#7FFF00,hexagonal
Brenkite,Ca2(CO3)F2,"{""Ca"": 2.0, ""C"": 1.0, ""O"": 3.0, ""F"": 2.0}",178.16,#FFFFFF,orthorhombic
Brewsterite-Ba,Ba(Al2Si6)O16·5H2O,"{""Ba"": 1.0, ""Al"": 2.0, ""Si"": 6.0, ""O"": 21.0, ""H"": 10.0}",705.863,#FFFFFF,triclinic
Brewsterite-Sr,Sr(Al2Si6)O16·5H2O,"{""Sr"": 1.0, ""Al"": 2.0, ""Si"": 6.0, ""O"": 21.0, ""H"": 10.0}",656.153,#FFFFFF,triclinic
Breyite,Ca3Si3O9,"{""Ca"": 3.0, ""Si"": 3.0, ""O"": 9.0}",348.48,#FFFFFF,triclinic
Brezinaite,Cr3S4,"{""Cr"": 3.0, ""S"": 4.0}",284.228,#A9A9A9,monoclinic
Brianite,Na2CaMg(PO4)2,"{""Na"": 2.0, ""Ca"": 1.0, ""Mg"": 1.0, ""P"": 2.0, ""O"": 8.0}",300.303,#FFFFFF,monoclinic
Brianroulstonite,Ca3B5O6(OH)7Cl2·8H2O,"{""Ca"": 3.0, ""B"": 5.0, ""O"": 21.0, ""H"": 23.0, ""Cl"": 2.0}",604.347,#FFFFFF,monoclinic
Briartite,Cu2FeGeS4,"{""Cu"": 2.0, ""Fe"": 1.0, ""Ge"": 1.0, ""S"": 4.0}",383.807,#DAA520,tetragonal
Bridgesite-(Ce),CaCe2Cu6(SO4)4(OH)12·8H2O,"{""Ca"": 1.0, ""Ce"": 2.0, ""Cu"": 6.0, ""S"": 4.0, ""O"": 36.0, ""H"": 28.0}",1434.022,#FFFFFF,monoclinic
Bridgmanite,MgSiO3,"{""Mg"": 1.0, ""Si"": 1.0, ""O"": 3.0}",100.387,#FFFFFF,orthorhombic
Britvinite,Pb14Mg9(Si10O28)(BO3)4(CO3)2(OH)12F2,"{""Pb"": 14.0, ""Mg"": 9.0, ""Si"": 10.0, ""O"": 58.0, ""B"": 4.0, ""C"": 2.0, ""H"": 12.0, ""F"": 2.0}",4445.691,#FFFFFF,triclinic
Brizziite,NaSbO3,"{""Na"": 1.0, ""Sb"": 1.0, ""O"": 3.0}",192.747,#A9A9A9,hexagonal
Brochantite,Cu4(SO4)(OH)6,"{""Cu"": 4.0, ""S"": 1.0, ""O"": 10.0, ""H"": 6.0}",452.282,#FFFFFF,monoclinic
Brodtkorbite,Cu2HgSe2,"{""Cu"": 2.0, ""Hg"": 1.0, ""Se"": 2.0}",485.624,#00BFFF,monoclinic
Bromargyrite,AgBr,"{""Ag"": 1.0, ""Br"": 1.0}",187.774,#C0C0C0,cubic
Bromellite,BeO,"{""Be"": 1.0, ""O"": 1.0}",25.0112,#FFFFFF,hexagonal
Brontesite,(NH4)3PbCl5,"{""N"": 3.0, ""H"": 12.0, ""Pb"": 1.0, ""Cl"": 5.0}",438.567,#FFFFFF,orthorhombic
Brookite,TiO2,"{""Ti"": 1.0, ""O"": 2.0}",79.865,#FFFFFF,orthorhombic
Brownmillerite,Ca2Fe3+AlO5,"{""Ca"": 2.0, ""Fe"": 1.0, ""Al"": 1.0, ""O"": 5.0}",242.978,#556B2F,orthorhombic
Brucite,Mg(OH)2,"{""Mg"": 1.0, ""O"": 2.0, ""H"": 2.0}",58.319,#FFFFFF,hexagonal
Bruggenite,Ca(IO3)2·H2O,"{""Ca"": 1.0, ""I"": 2.0, ""O"": 7.0, ""H"": 2.0}",407.887,#FFFFFF,monoclinic
Brugnatellite,Mg6Fe3+(CO3)(OH)13·4H2O,"{""Mg"": 6.0, ""Fe"": 1.0, ""C"": 1.0, ""O"": 20.0, ""H"": 21.0}",554.834,#556B2F,hexagonal
Brumadoite,Cu3(Te6+O4)(OH)4·5H2O,"{""Cu"": 3.0, ""Te"": 1.0, ""O"": 13.0, ""H"": 14.0}",540.337,#FFFFFF,monoclinic
Brunogeierite,Fe2+2Ge4+O4,"{""Fe"": 2.0, ""Ge"": 1.0, ""O"": 4.0}",248.316,#8B4513,cubic
Brunovskyite,NaZrSi2O6(OH),"{""Na"": 1.0, ""Zr"": 1.0, ""Si"": 2.0, ""O"": 7.0, ""H"": 1.0}",283.385,#FFFFFF,triclinic
Brushite,Ca(PO3OH)·2H2O,"{""Ca"": 1.0, ""P"": 1.0, ""O"": 6.0, ""H"": 5.0}",172.086,#FFFFFF,monoclinic
Bubnovaite,K2Na8Ca(SO4)6,"{""K"": 2.0, ""Na"": 8.0, ""Ca"": 1.0, ""S"": 6.0, ""O"": 24.0}",878.53,#FFFFFF,hexagonal
Buchwaldite,NaCa(PO4),"{""Na"": 1.0, ""Ca"": 1.0, ""P"": 1.0, ""O"": 4.0}",158.038,#FFFFFF,orthorhombic
Buckhornite,(Pb2BiS3)(AuTe2),"{""Pb"": 2.0, ""Bi"": 1.0, ""S"": 3.0, ""Au"": 1.0, ""Te"": 2.0}",1171.73,#708090,orthorhombic
Buddingtonite,(NH4)(AlSi3)O8,"{""N"": 1.0, ""H"": 4.0, ""Al"": 1.0, ""Si"": 3.0, ""O"": 8.0}",257.268,#FFFFFF,monoclinic
Bukovite,(Cu3Fe)Tl2Se4,"{""Cu"": 3.0, ""Fe"": 1.0, ""Tl"": 2.0, ""Se"": 4.0}",971.127,#556B2F,tetragonal
Bukovskyite,Fe3+2(AsO4)(SO4)(OH)·7H2O,"{""Fe"": 2.0, ""As"": 1.0, ""O"": 16.0, ""S"": 1.0, ""H"": 15.0}",489.776,#556B2F,triclinic
Bulachite,Al6(AsO4)3(OH)9(H2O)4·2H2O,"{""Al"": 6.0, ""As"": 3.0, ""O"": 27.0, ""H"": 21.0}",839.799,#FFFFFF,orthorhombic
Bultfonteinite,Ca2SiO3(OH)F·H2O,"{""Ca"": 2.0, ""Si"": 1.0, ""O"": 5.0, ""H"": 3.0, ""F"": 1.0}",210.258,#FFFFFF,triclinic
Bunsenite,NiO,"{""Ni"": 1.0, ""O"": 1.0}",74.692,#7FFF00,cubic
Burangaite,NaFe2+Al5(PO4)4(OH)6·2H2O,"{""Na"": 1.0, ""Fe"": 1.0, ""Al"": 5.0, ""P"": 4.0, ""O"": 24.0, ""H"": 10.0}",731.697,#556B2F,monoclinic
Burckhardtite,Pb2(Fe3+Te6+)(AlSi3O8)O6,"{""Pb"": 2.0, ""Fe"": 1.0, ""Te"": 1.0, ""Al"": 1.0, ""Si"": 3.0, ""O"": 14.0}",933.068,#556B2F,hexagonal
Burgessite,Co2(H2O)4[AsO3(OH)]2(H2O),"{""Co"": 2.0, ""H"": 12.0, ""O"": 13.0, ""As"": 2.0}",487.793,#FFFFFF,monoclinic
Burkeite,Na4(SO4)(CO3),"{""Na"": 4.0, ""S"": 1.0, ""O"": 7.0, ""C"": 1.0}",248.024,#FFFFFF,orthorhombic
Burnettite,CaVAlSiO6,"{""Ca"": 1.0, ""V"": 1.0, ""Al"": 1.0, ""Si"": 1.0, ""O"": 6.0}",242.081,#FFFFFF,monoclinic
Burnsite,KCdCu7O2(SeO3)2Cl9,"{""K"": 1.0, ""Cd"": 1.0, ""Cu"": 7.0, ""O"": 8.0, ""Se"": 2.0, ""Cl"": 9.0}",1201.314,#FFFFFF,hexagonal
Burpalite,Na4Ca2Zr2(Si2O7)2F4,"{""Na"": 4.0, ""Ca"": 2.0, ""Zr"": 2.0, ""Si"": 4.0, ""O"": 14.0, ""F"": 4.0}",766.882,#FFFFFF,monoclinic
Burroite,Ca2(NH4)2(V10O28)·15H2O,"{""Ca"": 2.0, ""N"": 2.0, ""H"": 38.0, ""V"": 10.0, ""O"": 43.0}",1343.851,#FFFFFF,triclinic
Bushmakinite,Pb2Al(PO4)(VO4)(OH),"{""Pb"": 2.0, ""Al"": 1.0, ""P"": 1.0, ""O"": 9.0, ""V"": 1.0, ""H"": 1.0}",668.297,#FFFFFF,monoclinic
Butlerite,Fe3+(SO4)(OH)·2H2O,"{""Fe"": 1.0, ""S"": 1.0, ""O"": 7.0, ""H"": 5.0}",204.938,#556B2F,monoclinic
Butschliite,K2Ca(CO3)2,"{""K"": 2.0, ""Ca"": 1.0, ""C"": 2.0, ""O"": 6.0}",238.29,#FFFFFF,hexagonal
Buynite,TlPb14As17S40,"{""Tl"": 1.0, ""Pb"": 14.0, ""As"": 17.0, ""S"": 40.0}",5661.254,#708090,monoclinic
Bystrite,Na7Ca(Al6Si6)O24(S5)2-Cl1-,"{""Na"": 7.0, ""Ca"": 1.0, ""Al"": 6.0, ""Si"": 6.0, ""O"": 24.0, ""S"": 5.0, ""Cl"": 1.0}",1111.136,#FFFFFF,hexagonal
Bystromite,MgSb5+2O6,"{""Mg"": 1.0, ""Sb"": 2.0, ""O"": 6.0}",363.819,#A9A9A9,tetragonal
Bytizite,Cu3SbSe3,"{""Cu"": 3.0, ""Sb"": 1.0, ""Se"": 3.0}",549.311,#00BFFF,orthorhombic
Cabalzarite,CaMg2(AsO4)2·2H2O,"{""Ca"": 1.0, ""Mg"": 2.0, ""As"": 2.0, ""O"": 10.0, ""H"": 4.0}",402.554,#FFFFFF,monoclinic
Cabrerite,NiMg2(AsO4)2·8H2O,"{""Ni"": 1.0, ""Mg"": 2.0, ""As"": 2.0, ""O"": 16.0, ""H"": 16.0}",529.259,#FFFFFF,monoclinic
Cabvinite,Th2F7(OH)·3H2O,"{""Th"": 2.0, ""F"": 7.0, ""O"": 4.0, ""H"": 7.0}",668.118,#FFFFFF,tetragonal
Cacoxenite,Fe3+24AlO6(PO4)17(OH)12·75H2O,"{""Fe"": 24.0, ""Al"": 1.0, ""O"": 161.0, ""P"": 17.0, ""H"": 162.0}",4632.955,#556B2F,hexagonal
Cadmium,Cd,"{""Cd"": 1.0}",112.41,#FFFFFF,hexagonal
Cadmoselite,CdSe,"{""Cd"": 1.0, ""Se"": 1.0}",191.381,#FFFFFF,hexagonal
Cadsulfohite,Cd2(SO4)(OH)2,"{""Cd"": 2.0, ""S"": 1.0, ""O"": 6.0, ""H"": 2.0}",354.89,#FFFFFF,monoclinic
Cadvanite,Cd(VO3)2,"{""Cd"": 1.0, ""V"": 2.0, ""O"": 6.0}",310.288,#FFFFFF,monoclinic
Caesiumpharmacosiderite,CsFe4[(AsO4)3(OH)4]·4H2O,"{""Cs"": 1.0, ""Fe"": 4.0, ""As"": 3.0, ""O"": 20.0, ""H"": 12.0}",913.132,#556B2F,cubic
Cafetite,CaTi2O5·H2O,"{""Ca"": 1.0, ""Ti"": 2.0, ""O"": 6.0, ""H"": 2.0}",233.822,#FFFFFF,monoclinic
Cahnite,Ca2B(AsO4)(OH)4,"{""Ca"": 2.0, ""B"": 1.0, ""As"": 1.0, ""O"": 8.0, ""H"": 4.0}",297.912,#FFFFFF,tetragonal
Calamaite,Na2TiO(SO4)2·2H2O,"{""Na"": 2.0, ""Ti"": 1.0, ""O"": 11.0, ""S"": 2.0, ""H"": 4.0}",337.988,#FFFFFF,orthorhombic
Calaverite,AuTe2,"{""Au"": 1.0, ""Te"": 2.0}",452.17,#FFD700,monoclinic
Calciborite,CaB2O4,"{""Ca"": 1.0, ""B"": 2.0, ""O"": 4.0}",125.694,#FFFFFF,orthorhombic
Calcinaksite,KNaCa(Si4O10)·H2O,"{""K"": 1.0, ""Na"": 1.0, ""Ca"": 1.0, ""Si"": 4.0, ""O"": 11.0, ""H"": 2.0}",392.511,#FFFFFF,triclinic
Calcioancylite-(La),(LaCa)(CO3)2(OH)(H2O),"{""La"": 1.0, ""Ca"": 1.0, ""C"": 2.0, ""O"": 8.0, ""H"": 3.0}",334.026,#FFFFFF,orthorhombic
Calcioandyrobertsite,KCaCu5(AsO4)4[As(OH)2O2]·2H2O,"{""K"": 1.0, ""Ca"": 1.0, ""Cu"": 5.0, ""As"": 5.0, ""O"": 22.0, ""H"": 6.0}",1129.542,#FFFFFF,orthorhombic
Calcioaravaipaite,PbCa2AlF9,"{""Pb"": 1.0, ""Ca"": 2.0, ""Al"": 1.0, ""F"": 9.0}",485.32,#FFFFFF,triclinic
Calciocatapleiite,CaZrSi3O9·2H2O,"{""Ca"": 1.0, ""Zr"": 1.0, ""Si"": 3.0, ""O"": 11.0, ""H"": 4.0}",395.578,#FFFFFF,orthorhombic
Calciocopiapite,CaFe3+4(SO4)6(OH)2·20H2O,"{""Ca"": 1.0, ""Fe"": 4.0, ""S"": 6.0, ""O"": 46.0, ""H"": 42.0}",1234.108,#556B2F,triclinic
Calciodelrioite,Ca(VO3)2·4H2O,"{""Ca"": 1.0, ""V"": 2.0, ""O"": 10.0, ""H"": 8.0}",310.016,#FFFFFF,monoclinic
Calcioferrite,Ca4MgFe3+4(PO4)6(OH)4·12H2O,"{""Ca"": 4.0, ""Mg"": 1.0, ""Fe"": 4.0, ""P"": 6.0, ""O"": 40.0, ""H"": 28.0}",1262.025,#556B2F,monoclinic
Calciohatertite,NaNaCa(CaFe3+)(AsO4)3,"{""Na"": 2.0, ""Ca"": 2.0, ""Fe"": 1.0, ""As"": 3.0, ""O"": 12.0}",598.735,#556B2F,monoclinic
Calciohilairite,CaZrSi3O9·3H2O,"{""Ca"": 1.0, ""Zr"": 1.0, ""Si"": 3.0, ""O"": 12.0, ""H"": 6.0}",413.593,#FFFFFF,hexagonal
Calciojohillerite,NaCaMgMg2(AsO4)3,"{""Na"": 1.0, ""Ca"": 1.0, ""Mg"": 3.0, ""As"": 3.0, ""O"": 12.0}",552.737,#FFFFFF,monoclinic
Calciolangbeinite,K2Ca2(SO4)3,"{""K"": 2.0, ""Ca"": 2.0, ""S"": 3.0, ""O"": 12.0}",446.52,#FFFFFF,cubic
Calcio-olivine,Ca2(SiO4),"{""Ca"": 2.0, ""Si"": 1.0, ""O"": 4.0}",172.237,#FFFFFF,orthorhombic
Calciopetersite,CaCu6(PO4)2(PO3OH)(OH)6·3H2O,"{""Ca"": 1.0, ""Cu"": 6.0, ""P"": 3.0, ""O"": 21.0, ""H"": 13.0}",863.359,#FFFFFF,hexagonal
Calciotantite,CaTa4O11,"{""Ca"": 1.0, ""Ta"": 4.0, ""O"": 11.0}",939.867,#FFFFFF,hexagonal
Calcioursilite,Ca4(UO2)4(Si2O5)5(OH)6·15H2O,"{""Ca"": 4.0, ""U"": 4.0, ""O"": 54.0, ""Si"": 10.0, ""H"": 36.0}",2293.516,#FFFFFF,orthorhombic
Calcioveatchite,SrCaB11O16(OH)5·H2O,"{""Sr"": 1.0, ""Ca"": 1.0, ""B"": 11.0, ""O"": 22.0, ""H"": 7.0}",605.642,#FFFFFF,monoclinic
Calcite,Ca(CO3),"{""Ca"": 1.0, ""C"": 1.0, ""O"": 3.0}",100.086,#FFFFFF,hexagonal
Calclacite,Ca(CH3COO)Cl·5H2O,"{""Ca"": 1.0, ""C"": 2.0, ""H"": 13.0, ""O"": 7.0, ""Cl"": 1.0}",224.647,#FFFFFF,monoclinic
Calderonite,Pb2Fe3+(VO4)2(OH),"{""Pb"": 2.0, ""Fe"": 1.0, ""V"": 2.0, ""O"": 9.0, ""H"": 1.0}",717.128,#556B2F,monoclinic
Caledonite,Cu2Pb5(SO4)3(CO3)(OH)6,"{""Cu"": 2.0, ""Pb"": 5.0, ""S"": 3.0, ""O"": 21.0, ""C"": 1.0, ""H"": 6.0}",1613.31,#FFFFFF,orthorhombic
Calkinsite-(Ce),Ce2(CO3)3·4H2O,"{""Ce"": 2.0, ""C"": 3.0, ""O"": 13.0, ""H"": 8.0}",532.324,#FFFFFF,orthorhombic
Callaghanite,Cu2Mg2(CO3)(OH)6·2H2O,"{""Cu"": 2.0, ""Mg"": 2.0, ""C"": 1.0, ""O"": 11.0, ""H"": 10.0}",373.782,#FFFFFF,monoclinic
Calomel,HgCl,"{""Hg"": 1.0, ""Cl"": 1.0}",236.04,#FFFFFF,tetragonal
Calzirtite,Ca2Zr5Ti2O16,"{""Ca"": 2.0, ""Zr"": 5.0, ""Ti"": 2.0, ""O"": 16.0}",887.994,#FFFFFF,orthorhombic
Camaraite,NaBa3Fe2+8Ti4(Si2O7)4O4(OH)4F3,"{""Na"": 1.0, ""Ba"": 3.0, ""Fe"": 8.0, ""Ti"": 4.0, ""Si"": 8.0, ""O"": 36.0, ""H"": 4.0, ""F"": 3.0}",1934.878,#556B2F,triclinic
Camaronesite,Fe3+2(PO3OH)2(SO4)(H2O)4·1-2H2O,"{""Fe"": 2.0, ""P"": 2.0, ""O"": 18.0, ""H"": 14.0, ""S"": 1.0}",507.792,#556B2F,hexagonal
Camerolaite,Cu6Al3(OH)18(H2O)2[Sb(OH)6](SO4),"{""Cu"": 6.0, ""Al"": 3.0, ""O"": 30.0, ""H"": 28.0, ""Sb"": 1.0, ""S"": 1.0}",1124.236,#FFFFFF,triclinic
Camgasite,CaMg(AsO4)(OH)·5H2O,"{""Ca"": 1.0, ""Mg"": 1.0, ""As"": 1.0, ""O"": 10.0, ""H"": 11.0}",310.383,#FFFFFF,monoclinic
Caminite,Mg7(SO4)5(OH)4·H2O,"{""Mg"": 7.0, ""S"": 5.0, ""O"": 25.0, ""H"": 6.0}",736.458,#FFFFFF,tetragonal
Canaphite,Na2CaP2O7·4H2O,"{""Na"": 2.0, ""Ca"": 1.0, ""P"": 2.0, ""O"": 11.0, ""H"": 8.0}",332.059,#FFFFFF,monoclinic
Canasite,K3Na3Ca5Si12O30(OH)4,"{""K"": 3.0, ""Na"": 3.0, ""Ca"": 5.0, ""Si"": 12.0, ""O"": 34.0, ""H"": 4.0}",1271.672,#FFFFFF,monoclinic
Canavesite,Mg2(HBO3)(CO3)·5H2O,"{""Mg"": 2.0, ""H"": 11.0, ""B"": 1.0, ""O"": 11.0, ""C"": 1.0}",258.508,#FFFFFF,monoclinic
Cancrisilite,Na7(Si7Al5)O24(CO3)·3H2O,"{""Na"": 7.0, ""Si"": 7.0, ""Al"": 5.0, ""O"": 30.0, ""C"": 1.0, ""H"": 6.0}",990.464,#FFFFFF,hexagonal
Cannizzarite,Pb8Bi10S23,"{""Pb"": 8.0, ""Bi"": 10.0, ""S"": 23.0}",4484.78,#708090,monoclinic
Cannonite,Bi2O(SO4)(OH)2,"{""Bi"": 2.0, ""O"": 7.0, ""S"": 1.0, ""H"": 2.0}",564.029,#FFFFFF,monoclinic
Canosioite,Ba2Fe3+(AsO4)2(OH),"{""Ba"": 2.0, ""Fe"": 1.0, ""As"": 2.0, ""O"": 9.0, ""H"": 1.0}",625.348,#556B2F,monoclinic
Caoxite,Ca(C2O4)·3H2O,"{""Ca"": 1.0, ""C"": 2.0, ""O"": 7.0, ""H"": 6.0}",182.141,#FFFFFF,triclinic
Capgaronnite,AgHgClS,"{""Ag"": 1.0, ""Hg"": 1.0, ""Cl"": 1.0, ""S"": 1.0}",375.97,#A9A9A9,orthorhombic
Cappelenite-(Y),BaY6B6Si3O24F2,"{""Ba"": 1.0, ""Y"": 6.0, ""B"": 6.0, ""Si"": 3.0, ""O"": 24.0, ""F"": 2.0}",1241.853,#FFFFFF,hexagonal
Capranicaite,KCaNaAl4B4Si2O18,"{""K"": 1.0, ""Ca"": 1.0, ""Na"": 1.0, ""Al"": 4.0, ""B"": 4.0, ""Si"": 2.0, ""O"": 18.0}",597.486,#FFFFFF,monoclinic
Caracolite,Na2(Pb2Na)(SO4)3Cl,"{""Na"": 3.0, ""Pb"": 2.0, ""S"": 3.0, ""O"": 12.0, ""Cl"": 1.0}",806.988,#FFFFFF,monoclinic
Carboborite,Ca2Mg[B(OH)4]2(CO3)2·4H2O,"{""Ca"": 2.0, ""Mg"": 1.0, ""B"": 2.0, ""O"": 18.0, ""H"": 16.0, ""C"": 2.0}",454.213,#FFFFFF,monoclinic
Carbobystrite,Na8(Al6Si6O24)(CO3)·4H2O,"{""Na"": 8.0, ""Al"": 6.0, ""Si"": 6.0, ""O"": 31.0, ""C"": 1.0, ""H"": 8.0}",1030.366,#FFFFFF,hexagonal
Carbocalumite,Ca4Al2(OH)12(CO3)·6H2O,"{""Ca"": 4.0, ""Al"": 2.0, ""O"": 21.0, ""H"": 24.0, ""C"": 1.0}",586.458,#FFFFFF,hexagonal
Carboferriphoxite,[(NH4)K(H2CO3)][Fe3+(HPO4)(H2PO4)(C2O4)],"{""N"": 1.0, ""H"": 9.0, ""K"": 1.0, ""C"": 3.0, ""O"": 15.0, ""Fe"": 1.0, ""P"": 2.0}",455.988,#556B2F,triclinic
Carboirite,Fe2+Al2GeO5(OH)2,"{""Fe"": 1.0, ""Al"": 2.0, ""Ge"": 1.0, ""O"": 7.0, ""H"": 2.0}",296.448,#556B2F,triclinic
Carbonatecyanotrichite,Cu4Al2(CO3)(OH)12·2H2O,"{""Cu"": 4.0, ""Al"": 2.0, ""C"": 1.0, ""O"": 17.0, ""H"": 16.0}",608.27,#FFFFFF,
Caresite,Fe2+4Al2(OH)12(CO3)·3H2O,"{""Fe"": 4.0, ""Al"": 2.0, ""O"": 18.0, ""H"": 18.0, ""C"": 1.0}",595.481,#556B2F,hexagonal
Carletonmooreite,Ni3Si,"{""Ni"": 3.0, ""Si"": 1.0}",204.164,#7FFF00,cubic
Carlfriesite,CaTe4+2Te6+O8,"{""Ca"": 1.0, ""Te"": 3.0, ""O"": 8.0}",550.87,#FFFFFF,monoclinic
Carlgieseckeite-(Nd),NaNdCa3(PO4)3F,"{""Na"": 1.0, ""Nd"": 1.0, ""Ca"": 3.0, ""P"": 3.0, ""O"": 12.0, ""F"": 1.0}",591.372,#FFFFFF,hexagonal
Carlhintzeite,Ca2AlF7·H2O,"{""Ca"": 2.0, ""Al"": 1.0, ""F"": 7.0, ""H"": 2.0, ""O"": 1.0}",258.139,#FFFFFF,triclinic
Carlinite,Tl2S,"{""Tl"": 2.0, ""S"": 1.0}",440.82,#A9A9A9,hexagonal
Carlosbarbosaite,(UO2)2Nb2O6(OH)2·2H2O,"{""U"": 2.0, ""O"": 14.0, ""Nb"": 2.0, ""H"": 6.0}",891.906,#FFFFFF,orthorhombic
Carlosruizite,K3Na2Na3Mg5(IO3)6(SeO4)6·6H2O,"{""K"": 3.0, ""Na"": 5.0, ""Mg"": 5.0, ""I"": 6.0, ""O"": 48.0, ""Se"": 6.0, ""H"": 12.0}",2369.043,#FFFFFF,hexagonal
Carlsbergite,CrN,"{""Cr"": 1.0, ""N"": 1.0}",66.003,#228B22,cubic
Carlsonite,(NH4)5Fe3+3O(SO4)6·7H2O,"{""N"": 5.0, ""H"": 34.0, ""Fe"": 3.0, ""O"": 32.0, ""S"": 6.0}",976.17,#556B2F,triclinic
Carmeltazite,ZrAl2Ti4O11,"{""Zr"": 1.0, ""Al"": 2.0, ""Ti"": 4.0, ""O"": 11.0}",512.645,#FFFFFF,orthorhombic
Carminite,PbFe3+2(AsO4)2(OH)2,"{""Pb"": 1.0, ""Fe"": 2.0, ""As"": 2.0, ""O"": 10.0, ""H"": 2.0}",630.74,#556B2F,orthorhombic
Carnallite,KMgCl3·6H2O,"{""K"": 1.0, ""Mg"": 1.0, ""Cl"": 3.0, ""H"": 12.0, ""O"": 6.0}",277.843,#FFFFFF,orthorhombic
Carnotite,K2(UO2)2(VO4)2·3H2O,"{""K"": 2.0, ""U"": 2.0, ""O"": 15.0, ""V"": 2.0, ""H"": 6.0}",902.173,#FFFFFF,monoclinic
Carobbiite,KF,"{""K"": 1.0, ""F"": 1.0}",58.096,#FFFFFF,cubic
Carpathite,C24H12,"{""C"": 24.0, ""H"": 12.0}",300.36,#FFFFFF,monoclinic
Carraraite,Ca3Ge(SO4)(CO3)(OH)6·12H2O,"{""Ca"": 3.0, ""Ge"": 1.0, ""S"": 1.0, ""O"": 25.0, ""C"": 1.0, ""H"": 30.0}",667.15,#FFFFFF,hexagonal
Carrollite,CuCo2S4,"{""Cu"": 1.0, ""Co"": 2.0, ""S"": 4.0}",309.652,#A9A9A9,cubic
Cascandite,CaScSi3O8(OH),"{""Ca"": 1.0, ""Sc"": 1.0, ""Si"": 3.0, ""O"": 9.0, ""H"": 1.0}",314.288,#FFFFFF,triclinic
Cassagnaite,Ca4Fe3+4V3+2(OH)6O2(Si3O10)(SiO4)2,"{""Ca"": 4.0, ""Fe"": 4.0, ""V"": 2.0, ""O"": 26.0, ""H"": 6.0, ""Si"": 5.0}",1048.023,#556B2F,orthorhombic
Cassedanneite,Pb5(VO4)2(CrO4)2·H2O,"{""Pb"": 5.0, ""V"": 2.0, ""O"": 17.0, ""Cr"": 2.0, ""H"": 2.0}",1515.875,#FFFFFF,monoclinic
Cassidyite,Ca2Ni(PO4)2·2H2O,"{""Ca"": 2.0, ""Ni"": 1.0, ""P"": 2.0, ""O"": 10.0, ""H"": 4.0}",364.819,#FFFFFF,triclinic
Caswellsilverite,NaCrS2,"{""Na"": 1.0, ""Cr"": 1.0, ""S"": 2.0}",139.106,#A9A9A9,hexagonal
Catalanoite,Na2(HPO4)·8H2O,"{""Na"": 2.0, ""H"": 17.0, ""P"": 1.0, ""O"": 12.0}",286.078,#FFFFFF,orthorhombic
Catamarcaite,Cu6GeWS8,"{""Cu"": 6.0, ""Ge"": 1.0, ""W"": 1.0, ""S"": 8.0}",894.226,#A9A9A9,hexagonal
Catapleiite,Na2Zr(Si3O9)·2H2O,"{""Na"": 2.0, ""Zr"": 1.0, ""Si"": 3.0, ""O"": 11.0, ""H"": 4.0}",401.48,#FFFFFF,monoclinic
Cattierite,CoS2,"{""Co"": 1.0, ""S"": 2.0}",123.053,#A9A9A9,cubic
Cattiite,Mg3(PO4)2·22H2O,"{""Mg"": 3.0, ""P"": 2.0, ""O"": 30.0, ""H"": 44.0}",659.185,#FFFFFF,triclinic
Cavansite,Ca(V4+O)(Si4O10)·4H2O,"{""Ca"": 1.0, ""V"": 1.0, ""O"": 15.0, ""Si"": 4.0, ""H"": 8.0}",451.409,#FFFFFF,orthorhombic
Cavoite,CaV3O7,"{""Ca"": 1.0, ""V"": 3.0, ""O"": 7.0}",304.897,#FFFFFF,orthorhombic
Cayalsite-(Y),CaY6Al2Si4O18F6,"{""Ca"": 1.0, ""Y"": 6.0, ""Al"": 2.0, ""Si"": 4.0, ""O"": 18.0, ""F"": 6.0}",1141.788,#FFFFFF,monoclinic
Cebaite-(Ce),Ba3Ce2(CO3)5F2,"{""Ba"": 3.0, ""Ce"": 2.0, ""C"": 5.0, ""O"": 15.0, ""F"": 2.0}",1030.266,#FFFFFF,monoclinic
Cebollite,Ca5Al2(SiO4)3(OH)4,"{""Ca"": 5.0, ""Al"": 2.0, ""Si"": 3.0, ""O"": 16.0, ""H"": 4.0}",598.625,#FFFFFF,
Cechite,PbFe2+(VO4)(OH),"{""Pb"": 1.0, ""Fe"": 1.0, ""V"": 1.0, ""O"": 5.0, ""H"": 1.0}",394.99,#556B2F,orthorhombic
Cejkaite,Na4(UO2)(CO3)3,"{""Na"": 4.0, ""U"": 1.0, ""O"": 11.0, ""C"": 3.0}",542.012,#FFFFFF,monoclinic
Celadonite,KMgFe3+Si4O10(OH)2,"{""K"": 1.0, ""Mg"": 1.0, ""Fe"": 1.0, ""Si"": 4.0, ""O"": 12.0, ""H"": 2.0}",425.592,#556B2F,monoclinic
Celestine,Sr(SO4),"{""Sr"": 1.0, ""S"": 1.0, ""O"": 4.0}",183.676,#FFFF00,orthorhombic
Celsian,Ba(Al2Si2O8),"{""Ba"": 1.0, ""Al"": 2.0, ""Si"": 2.0, ""O"": 8.0}",375.456,#FFFFFF,monoclinic
Cerchiaraite-(Al),Ba4Al4(Si4O12)O2(OH)4Cl2[Si2O3(OH)4],"{""Ba"": 4.0, ""Al"": 4.0, ""Si"": 6.0, ""O"": 25.0, ""H"": 8.0, ""Cl"": 2.0}",1304.697,#FFFFFF,tetragonal
Cerchiaraite-(Fe),Ba4Fe3+4(Si4O12)O2(OH)4Cl2[Si2O3(OH)4],"{""Ba"": 4.0, ""Fe"": 4.0, ""Si"": 6.0, ""O"": 25.0, ""H"": 8.0, ""Cl"": 2.0}",1420.149,#556B2F,tetragonal
Cerianite-(Ce),CeO2,"{""Ce"": 1.0, ""O"": 2.0}",172.118,#FFFFFF,cubic
Cerium,Ce,"{""Ce"": 1.0}",140.12,#FFFFFF,hexagonal
Cerromojonite,CuPbBiSe3,"{""Cu"": 1.0, ""Pb"": 1.0, ""Bi"": 1.0, ""Se"": 3.0}",716.639,#FFFFFF,orthorhombic
Ceruleite,CuAl4(AsO4)2(OH)8(H2O)4,"{""Cu"": 1.0, ""Al"": 4.0, ""As"": 2.0, ""O"": 20.0, ""H"": 16.0}",657.426,#FFFFFF,triclinic
Cerussite,Pb(CO3),"{""Pb"": 1.0, ""C"": 1.0, ""O"": 3.0}",267.208,#FFFFFF,orthorhombic
Cervantite,Sb3+Sb5+O4,"{""Sb"": 2.0, ""O"": 4.0}",307.516,#A9A9A9,orthorhombic
Cervelleite,Ag4TeS,"{""Ag"": 4.0, ""Te"": 1.0, ""S"": 1.0}",591.14,#A9A9A9,cubic
Cesanite,Ca2Na3(SO4)3OH,"{""Ca"": 2.0, ""Na"": 3.0, ""S"": 3.0, ""O"": 13.0, ""H"": 1.0}",454.301,#FFFFFF,hexagonal
Cesarferreiraite,Fe2+Fe3+2(AsO4)2(OH)2·8H2O,"{""Fe"": 3.0, ""As"": 2.0, ""O"": 18.0, ""H"": 18.0}",623.505,#556B2F,triclinic
Cesbronite,Cu3Te6+O4(OH)4,"{""Cu"": 3.0, ""Te"": 1.0, ""O"": 8.0, ""H"": 4.0}",450.262,#FFFFFF,orthorhombic
Cesiodymite,CsKCu5O(SO4)5,"{""Cs"": 1.0, ""K"": 1.0, ""Cu"": 5.0, ""O"": 21.0, ""S"": 5.0}",986.017,#FFFFFF,triclinic
Cesplumtantite,Cs2Pb3Ta8O24,"{""Cs"": 2.0, ""Pb"": 3.0, ""Ta"": 8.0, ""O"": 24.0}",2718.996,#FFFFFF,tetragonal
Cetineite,NaK5Sb14S6O18(H2O)6,"{""Na"": 1.0, ""K"": 5.0, ""Sb"": 14.0, ""S"": 6.0, ""O"": 24.0, ""H"": 12.0}",2511.552,#FFFFFF,hexagonal
Chabazite-Ca,Ca2[Al4Si8O24]·13H2O,"{""Ca"": 2.0, ""Al"": 4.0, ""Si"": 8.0, ""O"": 37.0, ""H"": 26.0}",1030.935,#FFFFFF,triclinic
Chabazite-Na,(Na3K)[Al4Si8O24]·11H2O,"{""Na"": 3.0, ""K"": 1.0, ""Al"": 4.0, ""Si"": 8.0, ""O"": 35.0, ""H"": 22.0}",1022.817,#FFFFFF,triclinic
Chadwickite,(UO2)(HAsO3),"{""U"": 1.0, ""O"": 5.0, ""H"": 1.0, ""As"": 1.0}",393.955,#FFFFFF,tetragonal
Chalcanthite,Cu(SO4)·5H2O,"{""Cu"": 1.0, ""S"": 1.0, ""O"": 9.0, ""H"": 10.0}",249.677,#FFFFFF,triclinic
Chalcoalumite,CuAl4(SO4)(OH)12·3H2O,"{""Cu"": 1.0, ""Al"": 4.0, ""S"": 1.0, ""O"": 19.0, ""H"": 18.0}",525.659,#FFFFFF,monoclinic
Chalcocite,Cu2S,"{""Cu"": 2.0, ""S"": 1.0}",159.152,#A9A9A9,cubic
Chalcocyanite,Cu(SO4),"{""Cu"": 1.0, ""S"": 1.0, ""O"": 4.0}",159.602,#00BFFF,orthorhombic
Chalcomenite,Cu(Se4+O3)·2H2O,"{""Cu"": 1.0, ""Se"": 1.0, ""O"": 5.0, ""H"": 4.0}",226.544,#FFFFFF,orthorhombic