name,formula,elements,density,color,crystal_system,dna
Lemoynite,Na2CaZr2Si10O26·5-6H2O,"{""Na"": 2.0, ""Ca"": 1.0, ""Zr"": 2.0, ""Si"": 10.0, ""O"": 32.0, ""H"": 12.0}",1073.5,#FFFFFF,monoclinic,"{""system"": ""monoclinic"", ""scale"": [0.7, 1.0, 1.3], ""optical"": {""transparent"": 1, ""refraction"": 1.5, ""birefringence"": 0.01}}"
Lenaite,AgFeS2,"{""Ag"": 1.0, ""Fe"": 1.0, ""S"": 2.0}",227.84,#DAA520,tetragonal,"{""system"": ""tetragonal"", ""scale"": [1.0, 1.0, 1.4], ""optical"": {""transparent"": 0, ""refraction"": 0.0, ""birefringence"": 0.0}}"
Lengenbachite,Ag4Cu2Pb18As12S39,"{""Ag"": 4.0, ""Cu"": 2.0, ""Pb"": 18.0, ""As"": 12.0, ""S"": 39.0}",6437.56,#708090,triclinic,"{""system"": ""triclinic"", ""scale"": [0.7, 1.0, 1.3], ""optical"": {""transparent"": 0, ""refraction"": 0.0, ""birefringence"": 0.0}}"
Leningradite,PbCu3(VO4)2Cl2,"{""Pb"": 1.0, ""Cu"": 3.0, ""V"": 2.0, ""O"": 8.0, ""Cl"": 2.0}",698.63,#FFFFFF,orthorhombic,"{""system"": ""orthorhombic"", ""scale"": [0.8, 1.0, 1.2], ""optical"": {""transparent"": 1, ""refraction"": 1.5, ""birefringence"": 0.01}}"
Lenoblite,V4+2O4·2H2O,"{""V"": 2.0, ""O"": 6.0, ""H"": 4.0}",201.91,#FFFFFF,,"{""system"": """", ""scale"": [1.0, 1.0, 1.0], ""optical"": {""transparent"": 1, ""refraction"": 1.5, ""birefringence"": 0.01}}"
Leogangite,Cu10(AsO4)4(SO4)(OH)6·8H2O,"{""Cu"": 10.0, ""As"": 4.0, ""O"": 34.0, ""S"": 1.0, ""H"": 22.0}",1533.42,#FFFFFF,monoclinic,"{""system"": ""monoclinic"", ""scale"": [0.7, 1.0, 1.3], ""optical"": {""transparent"": 1, ""refraction"": 1.5, ""birefringence"": 0.01}}"
Leonardsenite,MgAlF5·2H2O,"{""Mg"": 1.0, ""Al"": 1.0, ""F"": 5.0, ""H"": 4.0, ""O"": 2.0}",182.32,#FFFFFF,orthorhombic,"{""system"": ""orthorhombic"", ""scale"": [0.8, 1.0, 1.2], ""optical"": {""transparent"": 1, ""refraction"": 1.5, ""birefringence"": 0.01}}"
Leonite,K2Mg(SO4)2·4H2O,"{""K"": 2.0, ""Mg"": 1.0, ""S"": 2.0, ""O"": 12.0, ""H"": 8.0}",366.69,#FFFFFF,monoclinic,"{""system"": ""monoclinic"", ""scale"": [0.7, 1.0, 1.3], ""optical"": {""transparent"": 1, ""refraction"": 1.5, ""birefringence"": 0.01}}"
Leoszilardite,Na6Mg(UO2)2(CO3)6·6H2O,"{""Na"": 6.0, ""Mg"": 1.0, ""U"": 2.0, ""O"": 28.0, ""C"": 6.0, ""H"": 12.0}",1170.47,#FFFFFF,monoclinic,"{""system"": ""monoclinic"", ""scale"": [0.7, 1.0, 1.3], ""optical"": {""transparent"": 1, ""refraction"": 1.5, ""birefringence"": 0.01}}"
Lepersonnite-(Gd),CaGd2(UO2)24(CO3)8Si4O28·60H2O,"{""Ca"": 1.0, ""Gd"": 2.0, ""U"": 24.0, ""O"": 160.0, ""C"": 8.0, ""Si"": 4.0, ""H"": 120.0}",8956.7,#FFFFFF,orthorhombic,"{""system"": ""orthorhombic"", ""scale"": [0.8, 1.0, 1.2], ""optical"": {""transparent"": 1, ""refraction"": 1.5, ""birefringence"": 0.01}}"
Lepersonnite-(Nd),Nd4(UO2)24(SiO4)4(CO3)8(OH)28·48H2O,"{""Nd"": 4.0, ""U"": 24.0, ""O"": 164.0, ""Si"": 4.0, ""C"": 8.0, ""H"": 124.0}",9247.11,#FFFFFF,orthorhombic,"{""system"": ""orthorhombic"", ""scale"": [0.8, 1.0, 1.2], ""optical"": {""transparent"": 1, ""refraction"": 1.5, ""birefringence"": 0.01}}"
Lepidocrocite,Fe3+O(OH),"{""Fe"": 1.0, ""O"": 2.0, ""H"": 1.0}",88.86,#8B4513,orthorhombic,"{""system"": ""orthorhombic"", ""scale"": [0.8, 1.0, 1.2], ""optical"": {""transparent"": 0, ""refraction"": 0.0, ""birefringence"": 0.0}}"
Lermontovite,U4+(PO4)(OH)·H2O,"{""U"": 1.0, ""P"": 1.0, ""O"": 6.0, ""H"": 3.0}",368.02,#FFFFFF,orthorhombic,"{""system"": ""orthorhombic"", ""scale"": [0.8, 1.0, 1.2], ""optical"": {""transparent"": 1, ""refraction"": 1.5, ""birefringence"": 0.01}}"
Letovicite,(NH4)3H(SO4)2,"{""N"": 3.0, ""H"": 13.0, ""S"": 2.0, ""O"": 8.0}",247.25,#FFFFFF,monoclinic,"{""system"": ""monoclinic"", ""scale"": [0.7, 1.0, 1.3], ""optical"": {""transparent"": 1, ""refraction"": 1.5, ""birefringence"": 0.01}}"
Leucite,K(AlSi2O6),"{""K"": 1.0, ""Al"": 1.0, ""Si"": 2.0, ""O"": 6.0}",218.26,#FFFFFF,cubic,"{""system"": ""cubic"", ""scale"": [1.0, 1.0, 1.0], ""optical"": {""transparent"": 1, ""refraction"": 1.5, ""birefringence"": 0.0}}"
Leucophanite,NaCaBeSi2O6F,"{""Na"": 1.0, ""Ca"": 1.0, ""Be"": 1.0, ""Si"": 2.0, ""O"": 6.0, ""F"": 1.0}",243.26,#FFFFFF,triclinic,"{""system"": ""triclinic"", ""scale"": [0.7, 1.0, 1.3], ""optical"": {""transparent"": 1, ""refraction"": 1.5, ""birefringence"": 0.01}}"
Leucophosphite,KFe3+2(PO4)2(OH)·2H2O,"{""K"": 1.0, ""Fe"": 2.0, ""P"": 2.0, ""O"": 11.0, ""H"": 5.0}",393.78,#556B2F,monoclinic,"{""system"": ""monoclinic"", ""scale"": [0.7, 1.0, 1.3], ""optical"": {""transparent"": 0, ""refraction"": 0.0, ""birefringence"": 0.0}}"
Leucosphenite,Na4BaTi2B2Si10O30,"{""Na"": 4.0, ""Ba"": 1.0, ""Ti"": 2.0, ""B"": 2.0, ""Si"": 10.0, ""O"": 30.0}",1107.55,#FFFFFF,monoclinic,"{""system"": ""monoclinic"", ""scale"": [0.7, 1.0, 1.3], ""optical"": {""transparent"": 1, ""refraction"": 1.5, ""birefringence"": 0.01}}"
Levantite,KCa3Al2(SiO4)(Si2O7)(PO4),"{""K"": 1.0, ""Ca"": 3.0, ""Al"": 2.0, ""Si"": 3.0, ""O"": 15.0, ""P"": 1.0}",568.54,#FFFFFF,monoclinic,"{""system"": ""monoclinic"", ""scale"": [0.7, 1.0, 1.3], ""optical"": {""transparent"": 1, ""refraction"": 1.5, ""birefringence"": 0.01}}"
Leverettite,Cu3CoCl2(OH)6,"{""Cu"": 3.0, ""Co"": 1.0, ""Cl"": 2.0, ""O"": 6.0, ""H"": 6.0}",422.53,#FFFFFF,hexagonal,"{""system"": ""hexagonal"", ""scale"": [1.0, 1.0, 1.6], ""optical"": {""transparent"": 1, ""refraction"": 1.5, ""birefringence"": 0.01}}"
Levinsonite-(Y),YAl(SO4)2(C2O4)·12H2O,"{""Y"": 1.0, ""Al"": 1.0, ""S"": 2.0, ""O"": 24.0, ""C"": 2.0, ""H"": 24.0}",612.22,#FFFFFF,monoclinic,"{""system"": ""monoclinic"", ""scale"": [0.7, 1.0, 1.3], ""optical"": {""transparent"": 1, ""refraction"": 1.5, ""birefringence"": 0.01}}"
Levyne-Ca,Ca3(Si12Al6)O36·18H2O,"{""Ca"": 3.0, ""Si"": 12.0, ""Al"": 6.0, ""O"": 54.0, ""H"": 36.0}",1519.49,#FFFFFF,hexagonal,"{""system"": ""hexagonal"", ""scale"": [1.0, 1.0, 1.6], ""optical"": {""transparent"": 1, ""refraction"": 1.5, ""birefringence"": 0.01}}"
Levyne-Na,Na6(Si12Al6)O36·18H2O,"{""Na"": 6.0, ""Si"": 12.0, ""Al"": 6.0, ""O"": 54.0, ""H"": 36.0}",1537.19,#FFFFFF,hexagonal,"{""system"": ""hexagonal"", ""scale"": [1.0, 1.0, 1.6], ""optical"": {""transparent"": 1, ""refraction"": 1.5, ""birefringence"": 0.01}}"
Leybovite-K,KCuNa(MgFe3+)(AsO4)3,"{""K"": 1.0, ""Cu"": 1.0, ""Na"": 1.0, ""Mg"": 1.0, ""Fe"": 1.0, ""As"": 3.0, ""O"": 12.0}",622.56,#556B2F,monoclinic,"{""system"": ""monoclinic"", ""scale"": [0.7, 1.0, 1.3], ""optical"": {""transparent"": 0, ""refraction"": 0.0, ""birefringence"": 0.0}}"
Leydetite,Fe(UO2)(SO4)2·11H2O,"{""Fe"": 1.0, ""U"": 1.0, ""O"": 21.0, ""S"": 2.0, ""H"": 22.0}",716.18,#556B2F,monoclinic,"{""system"": ""monoclinic"", ""scale"": [0.7, 1.0, 1.3], ""optical"": {""transparent"": 0, ""refraction"": 0.0, ""birefringence"": 0.0}}"
Lianbinite,(NH4)(C2H3O3)(C2H4O3),"{""N"": 1.0, ""H"": 11.0, ""C"": 4.0, ""O"": 6.0}",169.14,#FFFFFF,monoclinic,"{""system"": ""monoclinic"", ""scale"": [0.7, 1.0, 1.3], ""optical"": {""transparent"": 1, ""refraction"": 1.5, ""birefringence"": 0.01}}"
Liandratite,U6+Nb2O8,"{""U"": 1.0, ""Nb"": 2.0, ""O"": 8.0}",551.85,#ADFF2F,hexagonal,"{""system"": ""hexagonal"", ""scale"": [1.0, 1.0, 1.6], ""optical"": {""transparent"": 0, ""refraction"": 0.0, ""birefringence"": 0.0}}"
Liangjunite,K2(Mo2O5)(SO4)2·3H2O,"{""K"": 2.0, ""Mo"": 2.0, ""O"": 16.0, ""S"": 2.0, ""H"": 6.0}",596.27,#FFFFFF,triclinic,"{""system"": ""triclinic"", ""scale"": [0.7, 1.0, 1.3], ""optical"": {""transparent"": 1, ""refraction"": 1.5, ""birefringence"": 0.01}}"
Liberite,Li2Be(SiO4),"{""Li"": 2.0, ""Be"": 1.0, ""Si"": 1.0, ""O"": 4.0}",114.98,#FFFFFF,monoclinic,"{""system"": ""monoclinic"", ""scale"": [0.7, 1.0, 1.3], ""optical"": {""transparent"": 1, ""refraction"": 1.5, ""birefringence"": 0.01}}"
Libethenite,Cu2(PO4)(OH),"{""Cu"": 2.0, ""P"": 1.0, ""O"": 5.0, ""H"": 1.0}",239.08,#FFFFFF,orthorhombic,"{""system"": ""orthorhombic"", ""scale"": [0.8, 1.0, 1.2], ""optical"": {""transparent"": 1, ""refraction"": 1.5, ""birefringence"": 0.01}}"
Liddicoatite,Ca(Li2Al)Al6(Si6O18)(BO3)3(OH)3(OH),"{""Ca"": 1.0, ""Li"": 2.0, ""Al"": 7.0, ""Si"": 6.0, ""O"": 31.0, ""B"": 3.0, ""H"": 4.0}",943.82,#FFFFFF,hexagonal,"{""system"": ""hexagonal"", ""scale"": [1.0, 1.0, 1.6], ""optical"": {""transparent"": 1, ""refraction"": 1.5, ""birefringence"": 0.01}}"
Liebauite,Ca3Cu5Si9O26,"{""Ca"": 3.0, ""Cu"": 5.0, ""Si"": 9.0, ""O"": 26.0}",1106.8,#FFFFFF,monoclinic,"{""system"": ""monoclinic"", ""scale"": [0.7, 1.0, 1.3], ""optical"": {""transparent"": 1, ""refraction"": 1.5, ""birefringence"": 0.01}}"
Liebenbergite,Ni2(SiO4),"{""Ni"": 2.0, ""Si"": 1.0, ""O"": 4.0}",209.47,#7FFF00,orthorhombic,"{""system"": ""orthorhombic"", ""scale"": [0.8, 1.0, 1.2], ""optical"": {""transparent"": 0, ""refraction"": 0.0, ""birefringence"": 0.0}}"
Liebermannite,KAlSi3O8,"{""K"": 1.0, ""Al"": 1.0, ""Si"": 3.0, ""O"": 8.0}",278.35,#FFFFFF,tetragonal,"{""system"": ""tetragonal"", ""scale"": [1.0, 1.0, 1.4], ""optical"": {""transparent"": 1, ""refraction"": 1.5, ""birefringence"": 0.01}}"
Liebigite,Ca2(UO2)(CO3)3·11H2O,"{""Ca"": 2.0, ""U"": 1.0, ""O"": 22.0, ""C"": 3.0, ""H"": 22.0}",728.4,#FFFFFF,orthorhombic,"{""system"": ""orthorhombic"", ""scale"": [0.8, 1.0, 1.2], ""optical"": {""transparent"": 1, ""refraction"": 1.5, ""birefringence"": 0.01}}"
Liguowuite,WO3,"{""W"": 1.0, ""O"": 3.0}",231.84,#FFFFFF,monoclinic,"{""system"": ""monoclinic"", ""scale"": [0.7, 1.0, 1.3], ""optical"": {""transparent"": 1, ""refraction"": 1.5, ""birefringence"": 0.01}}"
Likasite,Cu3(NO3)(OH)5·2H2O,"{""Cu"": 3.0, ""N"": 1.0, ""O"": 10.0, ""H"": 9.0}",373.73,#FFFFFF,orthorhombic,"{""system"": ""orthorhombic"", ""scale"": [0.8, 1.0, 1.2], ""optical"": {""transparent"": 1, ""refraction"": 1.5, ""birefringence"": 0.01}}"
Lileyite,Ba2Ti2Na(NaFe2+)Mg(Si2O7)2O2F2,"{""Ba"": 2.0, ""Ti"": 2.0, ""Na"": 2.0, ""Fe"": 1.0, ""Mg"": 1.0, ""Si"": 4.0, ""O"": 16.0, ""F"": 2.0}",902.9,#556B2F,monoclinic,"{""system"": ""monoclinic"", ""scale"": [0.7, 1.0, 1.3], ""optical"": {""transparent"": 0, ""refraction"": 0.0, ""birefringence"": 0.0}}"
Lime,CaO,"{""Ca"": 1.0, ""O"": 1.0}",56.08,#FFFFFF,cubic,"{""system"": ""cubic"", ""scale"": [1.0, 1.0, 1.0], ""optical"": {""transparent"": 1, ""refraction"": 1.5, ""birefringence"": 0.0}}"
Limousinite,BaCa[Be4P4O16]·6H2O,"{""Ba"": 1.0, ""Ca"": 1.0, ""Be"": 4.0, ""P"": 4.0, ""O"": 22.0, ""H"": 12.0}",701.43,#FFFFFF,monoclinic,"{""system"": ""monoclinic"", ""scale"": [0.7, 1.0, 1.3], ""optical"": {""transparent"": 1, ""refraction"": 1.5, ""birefringence"": 0.01}}"
Linarite,CuPb(SO4)(OH)2,"{""Cu"": 1.0, ""Pb"": 1.0, ""S"": 1.0, ""O"": 6.0, ""H"": 2.0}",400.83,#FFFFFF,monoclinic,"{""system"": ""monoclinic"", ""scale"": [0.7, 1.0, 1.3], ""optical"": {""transparent"": 1, ""refraction"": 1.5, ""birefringence"": 0.01}}"
Lindackerite,Cu5(AsO4)2(AsO3OH)2·9H2O,"{""Cu"": 5.0, ""As"": 4.0, ""O"": 25.0, ""H"": 20.0}",1037.59,#FFFFFF,triclinic,"{""system"": ""triclinic"", ""scale"": [0.7, 1.0, 1.3], ""optical"": {""transparent"": 1, ""refraction"": 1.5, ""birefringence"": 0.01}}"
Lindgrenite,Cu3(Mo6+O4)2(OH)2,"{""Cu"": 3.0, ""Mo"": 2.0, ""O"": 10.0, ""H"": 2.0}",544.57,#FFFFFF,monoclinic,"{""system"": ""monoclinic"", ""scale"": [0.7, 1.0, 1.3], ""optical"": {""transparent"": 1, ""refraction"": 1.5, ""birefringence"": 0.01}}"
Lindstromite,Pb3Cu3Bi7S15,"{""Pb"": 3.0, ""Cu"": 3.0, ""Bi"": 7.0, ""S"": 15.0}",2756.01,#708090,orthorhombic,"{""system"": ""orthorhombic"", ""scale"": [0.8, 1.0, 1.2], ""optical"": {""transparent"": 0, ""refraction"": 0.0, ""birefringence"": 0.0}}"
Linekite,K2Ca3[(UO2)(CO3)3]2·8H2O,"{""K"": 2.0, ""Ca"": 3.0, ""U"": 2.0, ""O"": 30.0, ""C"": 6.0, ""H"": 16.0}",1242.69,#FFFFFF,orthorhombic,"{""system"": ""orthorhombic"", ""scale"": [0.8, 1.0, 1.2], ""optical"": {""transparent"": 1, ""refraction"": 1.5, ""birefringence"": 0.01}}"
Lingbaoite,AgTe3,"{""Ag"": 1.0, ""Te"": 3.0}",490.67,#C0C0C0,hexagonal,"{""system"": ""hexagonal"", ""scale"": [1.0, 1.0, 1.6], ""optical"": {""transparent"": 0, ""refraction"": 0.0, ""birefringence"": 0.0}}"
Lingunite,NaAlSi3O8,"{""Na"": 1.0, ""Al"": 1.0, ""Si"": 3.0, ""O"": 8.0}",262.24,#FFFFFF,tetragonal,"{""system"": ""tetragonal"", ""scale"": [1.0, 1.0, 1.4], ""optical"": {""transparent"": 1, ""refraction"": 1.5, ""birefringence"": 0.01}}"
Linnaeite,Co2+Co3+2S4,"{""Co"": 3.0, ""S"": 4.0}",305.03,#A9A9A9,cubic,"{""system"": ""cubic"", ""scale"": [1.0, 1.0, 1.0], ""optical"": {""transparent"": 0, ""refraction"": 0.0, ""birefringence"": 0.0}}"
Lintisite,Na3LiTi2O2(SiO3)4·2H2O,"{""Na"": 3.0, ""Li"": 1.0, ""Ti"": 2.0, ""O"": 16.0, ""Si"": 4.0, ""H"": 4.0}",544.04,#FFFFFF,monoclinic,"{""system"": ""monoclinic"", ""scale"": [0.7, 1.0, 1.3], ""optical"": {""transparent"": 1, ""refraction"": 1.5, ""birefringence"": 0.01}}"
Linzhiite,FeSi2,"{""Fe"": 1.0, ""Si"": 2.0}",112.03,#8B4513,tetragonal,"{""system"": ""tetragonal"", ""scale"": [1.0, 1.0, 1.4], ""optical"": {""transparent"": 0, ""refraction"": 0.0, ""birefringence"": 0.0}}"
Liottite,Na16Ca8Si18Al18O72(SO4)5Cl4,"{""Na"": 16.0, ""Ca"": 8.0, ""Si"": 18.0, ""Al"": 18.0, ""O"": 92.0, ""S"": 5.0, ""Cl"": 4.0}",3453.84,#FFFFFF,hexagonal,"{""system"": ""hexagonal"", ""scale"": [1.0, 1.0, 1.6], ""optical"": {""transparent"": 1, ""refraction"": 1.5, ""birefringence"": 0.01}}"
Lipscombite,Fe2+Fe3+2(PO4)2(OH)2,"{""Fe"": 3.0, ""P"": 2.0, ""O"": 10.0, ""H"": 2.0}",391.51,#556B2F,unknown,"{""system"": ""unknown"", ""scale"": [1.0, 1.0, 1.0], ""optical"": {""transparent"": 0, ""refraction"": 0.0, ""birefringence"": 0.0}}"
Liroconite,Cu2Al(AsO4)(OH)4·4H2O,"{""Cu"": 2.0, ""Al"": 1.0, ""As"": 1.0, ""O"": 12.0, ""H"": 12.0}",433.1,#FFFFFF,monoclinic,"{""system"": ""monoclinic"", ""scale"": [0.7, 1.0, 1.3], ""optical"": {""transparent"": 1, ""refraction"": 1.5, ""birefringence"": 0.01}}"
Lisanite,CaNiP2O7,"{""Ca"": 1.0, ""Ni"": 1.0, ""P"": 2.0, ""O"": 7.0}",272.71,#FFFFFF,triclinic,"{""system"": ""triclinic"", ""scale"": [0.7, 1.0, 1.3], ""optical"": {""transparent"": 1, ""refraction"": 1.5, ""birefringence"": 0.01}}"
Lisetite,Na2CaAl4(SiO4)4,"{""Na"": 2.0, ""Ca"": 1.0, ""Al"": 4.0, ""Si"": 4.0, ""O"": 16.0}",562.34,#FFFFFF,orthorhombic,"{""system"": ""orthorhombic"", ""scale"": [0.8, 1.0, 1.2], ""optical"": {""transparent"": 1, ""refraction"": 1.5, ""birefringence"": 0.01}}"
Lisiguangite,CuPtBiS3,"{""Cu"": 1.0, ""Pt"": 1.0, ""Bi"": 1.0, ""S"": 3.0}",563.79,#A9A9A9,orthorhombic,"{""system"": ""orthorhombic"", ""scale"": [0.8, 1.0, 1.2], ""optical"": {""transparent"": 0, ""refraction"": 0.0, ""birefringence"": 0.0}}"
Lisitsynite,KBSi2O6,"{""K"": 1.0, ""B"": 1.0, ""Si"": 2.0, ""O"": 6.0}",202.09,#FFFFFF,orthorhombic,"{""system"": ""orthorhombic"", ""scale"": [0.8, 1.0, 1.2], ""optical"": {""transparent"": 1, ""refraction"": 1.5, ""birefringence"": 0.01}}"
Lislkirchnerite,Pb6Al(OH)8Cl2(NO3)5·2H2O,"{""Pb"": 6.0, ""Al"": 1.0, ""O"": 25.0, ""H"": 12.0, ""Cl"": 2.0, ""N"": 5.0}",1823.23,#FFFFFF,monoclinic,"{""system"": ""monoclinic"", ""scale"": [0.7, 1.0, 1.3], ""optical"": {""transparent"": 1, ""refraction"": 1.5, ""birefringence"": 0.01}}"
Litharge,PbO,"{""Pb"": 1.0, ""O"": 1.0}",223.2,#FFFFFF,tetragonal,"{""system"": ""tetragonal"", ""scale"": [1.0, 1.0, 1.4], ""optical"": {""transparent"": 1, ""refraction"": 1.5, ""birefringence"": 0.01}}"
Lithiophosphate,Li3(PO4),"{""Li"": 3.0, ""P"": 1.0, ""O"": 4.0}",115.79,#FFFFFF,orthorhombic,"{""system"": ""orthorhombic"", ""scale"": [0.8, 1.0, 1.2], ""optical"": {""transparent"": 1, ""refraction"": 1.5, ""birefringence"": 0.01}}"
Lithiotantite,LiTa3O8,"{""Li"": 1.0, ""Ta"": 3.0, ""O"": 8.0}",677.79,#FFFFFF,monoclinic,"{""system"": ""monoclinic"", ""scale"": [0.7, 1.0, 1.3], ""optical"": {""transparent"": 1, ""refraction"": 1.5, ""birefringence"": 0.01}}"
Lithiowodginite,LiTa3O8,"{""Li"": 1.0, ""Ta"": 3.0, ""O"": 8.0}",677.79,#FFFFFF,monoclinic,"{""system"": ""monoclinic"", ""scale"": [0.7, 1.0, 1.3], ""optical"": {""transparent"": 1, ""refraction"": 1.5, ""birefringence"": 0.01}}"
Lithosite,K3Al2Si4O12(OH),"{""K"": 3.0, ""Al"": 2.0, ""Si"": 4.0, ""O"": 13.0, ""H"": 1.0}",492.63,#FFFFFF,monoclinic,"{""system"": ""monoclinic"", ""scale"": [0.7, 1.0, 1.3], ""optical"": {""transparent"": 1, ""refraction"": 1.5, ""birefringence"": 0.01}}"
Litidionite,KNaCuSi4O10,"{""K"": 1.0, ""Na"": 1.0, ""Cu"": 1.0, ""Si"": 4.0, ""O"": 10.0}",398.0,#FFFFFF,triclinic,"{""system"": ""triclinic"", ""scale"": [0.7, 1.0, 1.3], ""optical"": {""transparent"": 1, ""refraction"": 1.5, ""birefringence"": 0.01}}"
Litochlebite,Ag2PbBi4Se8,"{""Ag"": 2.0, ""Pb"": 1.0, ""Bi"": 4.0, ""Se"": 8.0}",1890.54,#FFFFFF,monoclinic,"{""system"": ""monoclinic"", ""scale"": [0.7, 1.0, 1.3], ""optical"": {""transparent"": 1, ""refraction"": 1.5, ""birefringence"": 0.01}}"
Litvinskite,Na3ZrSi6O13(OH)5,"{""Na"": 3.0, ""Zr"": 1.0, ""Si"": 6.0, ""O"": 18.0, ""H"": 5.0}",621.77,#FFFFFF,monoclinic,"{""system"": ""monoclinic"", ""scale"": [0.7, 1.0, 1.3], ""optical"": {""transparent"": 1, ""refraction"": 1.5, ""birefringence"": 0.01}}"
Liuite,FeTiO3,"{""Fe"": 1.0, ""Ti"": 1.0, ""O"": 3.0}",151.72,#8B4513,orthorhombic,"{""system"": ""orthorhombic"", ""scale"": [0.8, 1.0, 1.2], ""optical"": {""transparent"": 0, ""refraction"": 0.0, ""birefringence"": 0.0}}"
Liveingite,Pb20As24S56,"{""Pb"": 20.0, ""As"": 24.0, ""S"": 56.0}",7737.44,#708090,monoclinic,"{""system"": ""monoclinic"", ""scale"": [0.7, 1.0, 1.3], ""optical"": {""transparent"": 0, ""refraction"": 0.0, ""birefringence"": 0.0}}"
Livingstonite,HgSb4S6(S)2,"{""Hg"": 1.0, ""Sb"": 4.0, ""S"": 8.0}",944.11,#A9A9A9,monoclinic,"{""system"": ""monoclinic"", ""scale"": [0.7, 1.0, 1.3], ""optical"": {""transparent"": 0, ""refraction"": 0.0, ""birefringence"": 0.0}}"
Lizardite,Mg3Si2O5(OH)4,"{""Mg"": 3.0, ""Si"": 2.0, ""O"": 9.0, ""H"": 4.0}",277.14,#FFFFFF,triclinic,"{""system"": ""triclinic"", ""scale"": [0.7, 1.0, 1.3], ""optical"": {""transparent"": 1, ""refraction"": 1.5, ""birefringence"": 0.01}}"
Llantenesite,Cu6Al[SeO4](OH)12Cl·3H2O,"{""Cu"": 6.0, ""Al"": 1.0, ""Se"": 1.0, ""O"": 19.0, ""H"": 18.0, ""Cl"": 1.0}",844.83,#FFFFFF,hexagonal,"{""system"": ""hexagonal"", ""scale"": [1.0, 1.0, 1.6], ""optical"": {""transparent"": 1, ""refraction"": 1.5, ""birefringence"": 0.01}}"
Lobanovite,K2Na(Fe2+4Mg2Na)Ti2(Si4O12)2O2(OH)4,"{""K"": 2.0, ""Na"": 2.0, ""Fe"": 4.0, ""Mg"": 2.0, ""Ti"": 2.0, ""Si"": 8.0, ""O"": 30.0, ""H"": 4.0}",1200.69,#556B2F,monoclinic,"{""system"": ""monoclinic"", ""scale"": [0.7, 1.0, 1.3], ""optical"": {""transparent"": 0, ""refraction"": 0.0, ""birefringence"": 0.0}}"
Lokkaite-(Y),CaY4(CO3)7·9H2O,"{""Ca"": 1.0, ""Y"": 4.0, ""C"": 7.0, ""O"": 30.0, ""H"": 18.0}",977.93,#FFFFFF,orthorhombic,"{""system"": ""orthorhombic"", ""scale"": [0.8, 1.0, 1.2], ""optical"": {""transparent"": 1, ""refraction"": 1.5, ""birefringence"": 0.01}}"
Lollingite,FeAs2,"{""Fe"": 1.0, ""As"": 2.0}",205.69,#8B4513,orthorhombic,"{""system"": ""orthorhombic"", ""scale"": [0.8, 1.0, 1.2], ""optical"": {""transparent"": 0, ""refraction"": 0.0, ""birefringence"": 0.0}}"
Lomonosovite,Na6Na2Ti2Na2Ti2(Si2O7)2(PO4)2O4,"{""Na"": 10.0, ""Ti"": 4.0, ""Si"": 4.0, ""O"": 26.0, ""P"": 2.0}",1011.68,#FFFFFF,triclinic,"{""system"": ""triclinic"", ""scale"": [0.7, 1.0, 1.3], ""optical"": {""transparent"": 1, ""refraction"": 1.5, ""birefringence"": 0.01}}"
Londonite,CsBe4Al4(B11Be)O28,"{""Cs"": 1.0, ""Be"": 5.0, ""Al"": 4.0, ""B"": 11.0, ""O"": 28.0}",852.79,#FFFFFF,cubic,"{""system"": ""cubic"", ""scale"": [1.0, 1.0, 1.0], ""optical"": {""transparent"": 1, ""refraction"": 1.5, ""birefringence"": 0.0}}"
Lonecreekite,(NH4)Fe3+(SO4)2·12H2O,"{""N"": 1.0, ""H"": 28.0, ""Fe"": 1.0, ""S"": 2.0, ""O"": 20.0}",482.2,#556B2F,cubic,"{""system"": ""cubic"", ""scale"": [1.0, 1.0, 1.0], ""optical"": {""transparent"": 0, ""refraction"": 0.0, ""birefringence"": 0.0}}"
Lonsdaleite,C,"{""C"": 1.0}",12.01,#FFFFFF,hexagonal,"{""system"": ""hexagonal"", ""scale"": [1.0, 1.0, 1.6], ""optical"": {""transparent"": 1, ""refraction"": 1.5, ""birefringence"": 0.01}}"