name,formula,elements,density,color,crystal,pm_ids,gacha_weight
Nanpingite,CsAl2(Si3Al)O10(OH)2,"{""Cs"": 1.0, ""Al"": 3.0, ""Si"": 3.0, ""O"": 12.0, ""H"": 2.0}",492.115,#FFFFFF,monoclinic,{34},1.773e-08
Nantokite,CuCl,"{""Cu"": 1.0, ""Cl"": 1.0}",98.996,#00BFFF,cubic,"{45,47,50,54,56}",3.2303e-07
Napoliite,Pb2OFCl,"{""Pb"": 2.0, ""O"": 1.0, ""F"": 1.0, ""Cl"": 1.0}",484.847,#FFFFFF,tetragonal,{},5e-08
Naquite,FeSi,"{""Fe"": 1.0, ""Si"": 1.0}",83.93,#8B4513,cubic,"{5,36,38}",4.43346e-07
Nashite,Na3Ca2[(V4+V5+9)O28]·24H2O,"{""Na"": 3.0, ""Ca"": 2.0, ""V"": 10.0, ""O"": 52.0, ""H"": 48.0}",1538.878,#FFFFFF,monoclinic,{47},1.5015e-07
Nasinite,Na2B5O8(OH)·2H2O,"{""Na"": 2.0, ""B"": 5.0, ""O"": 11.0, ""H"": 5.0}",281.059,#FFFFFF,orthorhombic,"{25,55,57}",2.89579e-07
Nasledovite,PbMn2+3Al4O5(SO4)(CO3)4·5H2O,"{""Pb"": 1.0, ""Mn"": 3.0, ""Al"": 4.0, ""O"": 26.0, ""S"": 1.0, ""C"": 4.0, ""H"": 10.0}",986.1,#FFFFFF,unknown,{47},3.003e-09
Nasonite,Ca4Pb6(Si2O7)3Cl2,"{""Ca"": 4.0, ""Pb"": 6.0, ""Si"": 6.0, ""O"": 21.0, ""Cl"": 2.0}",1978.901,#FFFFFF,hexagonal,"{22,32}",6.4758e-08
Nastrophite,NaSr(PO4)·9H2O,"{""Na"": 1.0, ""Sr"": 1.0, ""P"": 1.0, ""O"": 13.0, ""H"": 18.0}",367.715,#FFFFFF,cubic,"{23,35}",1.77257e-07
Nataliyamalikite,TlI,"{""Tl"": 1.0, ""I"": 1.0}",331.28,#FFFFFF,orthorhombic,{45},2.3585e-08
Natalyite,NaV3+Si2O6,"{""Na"": 1.0, ""V"": 1.0, ""Si"": 2.0, ""O"": 6.0}",226.096,#FFFFFF,monoclinic,{53},8.547e-08
Natanite,Fe2+Sn4+(OH)6,"{""Fe"": 1.0, ""Sn"": 1.0, ""O"": 6.0, ""H"": 6.0}",276.597,#556B2F,cubic,{47},1.5015e-07
Natisite,Na2TiO(SiO4),"{""Na"": 2.0, ""Ti"": 1.0, ""O"": 5.0, ""Si"": 1.0}",201.927,#FFFFFF,tetragonal,{35},4.132e-09
Natrite,Na2(CO3),"{""Na"": 2.0, ""C"": 1.0, ""O"": 3.0}",105.988,#FFFFFF,monoclinic,"{25,31,35,45}",1.13068e-07
Natroalunite,NaAl3(SO4)2(OH)6,"{""Na"": 1.0, ""Al"": 3.0, ""S"": 2.0, ""O"": 14.0, ""H"": 6.0}",398.09,#FFFFFF,hexagonal,"{24,45,46}",7.021e-09
Natroaphthitalite,KNa3(SO4)2,"{""K"": 1.0, ""Na"": 3.0, ""S"": 2.0, ""O"": 8.0}",300.18,#FFFFFF,hexagonal,{45},4.72e-10
Natroboltwoodite,Na(UO2)(SiO3OH)·H2O,"{""Na"": 1.0, ""U"": 1.0, ""O"": 7.0, ""Si"": 1.0, ""H"": 3.0}",404.122,#FFFFFF,orthorhombic,{47},1.5015e-07
Natrochalcite,NaCu2(SO4)2(OH)·H2O,"{""Na"": 1.0, ""Cu"": 2.0, ""S"": 2.0, ""O"": 10.0, ""H"": 3.0}",377.216,#FFFFFF,monoclinic,"{45,47}",3.475e-09
Natrodufrenite,NaFe2+Fe3+5(PO4)4(OH)6·2H2O,"{""Na"": 1.0, ""Fe"": 6.0, ""P"": 4.0, ""O"": 24.0, ""H"": 10.0}",876.012,#556B2F,monoclinic,"{34,47}",1.6788e-08
Natroglaucocerinite,Zn6Al3(OH)18[Na(H2O)6](SO4)2·6H2O,"{""Zn"": 6.0, ""Al"": 3.0, ""O"": 38.0, ""H"": 42.0, ""Na"": 1.0, ""S"": 2.0}",1210.634,#FFFFFF,hexagonal,{47},3.003e-09
Natrojarosite,NaFe3+3(SO4)2(OH)6,"{""Na"": 1.0, ""Fe"": 3.0, ""S"": 2.0, ""O"": 14.0, ""H"": 6.0}",484.679,#556B2F,hexagonal,"{45,46,47}",7.321e-09
Natrolemoynite,Na4Zr2Si10O26·9H2O,"{""Na"": 4.0, ""Zr"": 2.0, ""Si"": 10.0, ""O"": 35.0, ""H"": 18.0}",1133.367,#FFFFFF,monoclinic,{35},1.3774e-08
Natrolite,Na2(Si3Al2)O10·2H2O,"{""Na"": 2.0, ""Si"": 3.0, ""Al"": 2.0, ""O"": 12.0, ""H"": 4.0}",380.219,#FFFFFF,monoclinic,"{9,10,16,17,22,24,35,53}",1.909059e-06
Natromarkeyite,Na2Ca8(UO2)4(CO3)13(H2O)24·3H2O,"{""Na"": 2.0, ""Ca"": 8.0, ""U"": 4.0, ""O"": 74.0, ""C"": 13.0, ""H"": 54.0}",2713.225,#FFFFFF,orthorhombic,{47},1.5015e-07
Natromelansonite,Na3Zr[Si7AlO19]·4H2O,"{""Na"": 3.0, ""Zr"": 1.0, ""Si"": 7.0, ""Al"": 1.0, ""O"": 23.0, ""H"": 8.0}",759.812,#FFFFFF,monoclinic,{},1e-06
Natromolybdite,Na2MoO4·2H2O,"{""Na"": 2.0, ""Mo"": 1.0, ""O"": 6.0, ""H"": 4.0}",241.956,#FFFFFF,orthorhombic,{},1e-06
Natron,Na2(CO3)·10H2O,"{""Na"": 2.0, ""C"": 1.0, ""O"": 13.0, ""H"": 20.0}",286.138,#FFFFFF,monoclinic,"{25,35,47}",2.11543e-07
Natronambulite,NaMn2+4Si5O14(OH),"{""Na"": 1.0, ""Mn"": 4.0, ""Si"": 5.0, ""O"": 15.0, ""H"": 1.0}",624.16,#FFFFFF,triclinic,"{32,34}",2.1e-09
Natroniobite,NaNbO3,"{""Na"": 1.0, ""Nb"": 1.0, ""O"": 3.0}",163.893,#FFFFFF,monoclinic,{35},1.3774e-08
Natropalermoite,Na2SrAl4(PO4)4(OH)4,"{""Na"": 2.0, ""Sr"": 1.0, ""Al"": 4.0, ""P"": 4.0, ""O"": 20.0, ""H"": 4.0}",689.436,#FFFFFF,orthorhombic,{34},1.773e-09
Natropharmacoalumite,NaAl4(AsO4)3(OH)4·4H2O,"{""Na"": 1.0, ""Al"": 4.0, ""As"": 3.0, ""O"": 20.0, ""H"": 12.0}",687.76,#FFFFFF,cubic,{47},1.5015e-07
Natropharmacosiderite,NaFe3+4(AsO4)3(OH)4·4H2O,"{""Na"": 1.0, ""Fe"": 4.0, ""As"": 3.0, ""O"": 20.0, ""H"": 12.0}",803.212,#556B2F,cubic,{47},1.5015e-07
Natrophilite,NaMn2+(PO4),"{""Na"": 1.0, ""Mn"": 1.0, ""P"": 1.0, ""O"": 4.0}",172.898,#FFFFFF,orthorhombic,{34},8.87e-10
Natrophosphate,Na7(PO4)2F·19H2O,"{""Na"": 7.0, ""P"": 2.0, ""O"": 27.0, ""F"": 1.0, ""H"": 38.0}",712.153,#FFFFFF,cubic,"{9,10,35}",9.299e-09
Natrosilite,Na2Si2O5,"{""Na"": 2.0, ""Si"": 2.0, ""O"": 5.0}",182.145,#FFFFFF,monoclinic,"{9,35}",2.31286e-07
Natrosulfatourea,Na2(SO4)[CO(NH2)2],"{""Na"": 2.0, ""S"": 1.0, ""O"": 5.0, ""C"": 1.0, ""N"": 2.0, ""H"": 4.0}",202.092,#FFFFFF,orthorhombic,"{47,52}",5.781e-09
Natrotantite,Na2Ta4O11,"{""Na"": 2.0, ""Ta"": 4.0, ""O"": 11.0}",945.769,#FFFFFF,hexagonal,{34},1.773e-08
Natrouranospinite,Na2(UO2)2(AsO4)2·5H2O,"{""Na"": 2.0, ""U"": 2.0, ""O"": 17.0, ""As"": 2.0, ""H"": 10.0}",953.947,#FFFFFF,tetragonal,{47},1.5015e-07
Natroxalate,Na2(C2O4),"{""Na"": 2.0, ""C"": 2.0, ""O"": 4.0}",133.998,#FFFFFF,unknown,"{22,52}",1.79375e-07
Natrozippeite,Na5(UO2)8(SO4)4O5(OH)3·12H2O,"{""Na"": 5.0, ""U"": 8.0, ""O"": 52.0, ""S"": 4.0, ""H"": 27.0}",3006.594,#FFFFFF,monoclinic,"{47,55}",3.761e-09
Naujakasite,Na6Fe2+Al4Si8O26,"{""Na"": 6.0, ""Fe"": 1.0, ""Al"": 4.0, ""Si"": 8.0, ""O"": 26.0}",942.367,#556B2F,monoclinic,{35},2.6171e-08
Naumannite,Ag2Se,"{""Ag"": 2.0, ""Se"": 1.0}",294.711,#C0C0C0,orthorhombic,{33},1.2547e-08
Navrotskyite,K2Na10(UO2)3(SO4)9·2H2O,"{""K"": 2.0, ""Na"": 10.0, ""U"": 3.0, ""O"": 44.0, ""S"": 9.0, ""H"": 4.0}",2018.714,#FFFFFF,orthorhombic,{47},3.003e-09
Nazarchukite,Ca2NiFe3+2(PO4)4,"{""Ca"": 2.0, ""Ni"": 1.0, ""Fe"": 2.0, ""P"": 4.0, ""O"": 16.0}",630.419,#556B2F,orthorhombic,{51},7.812e-09
Nazarovite,Ni12P5,"{""Ni"": 12.0, ""P"": 5.0}",859.186,#7FFF00,tetragonal,"{4,51}",2.9089e-08
Nchwaningite,Mn2SiO3(OH)2·H2O,"{""Mn"": 2.0, ""Si"": 1.0, ""O"": 6.0, ""H"": 4.0}",237.987,#FFFFFF,orthorhombic,{32},1.214e-09
Nealite,Pb4Fe(AsO3)2Cl4·2H2O,"{""Pb"": 4.0, ""Fe"": 1.0, ""As"": 2.0, ""O"": 8.0, ""Cl"": 4.0, ""H"": 4.0}",1308.313,#556B2F,triclinic,"{47,56}",2.2008e-07
Nefedovite,Na5Ca4(PO4)4F,"{""Na"": 5.0, ""Ca"": 4.0, ""P"": 4.0, ""O"": 16.0, ""F"": 1.0}",674.14,#FFFFFF,tetragonal,{35},6.89e-10
Negevite,NiP2,"{""Ni"": 1.0, ""P"": 2.0}",120.641,#7FFF00,cubic,{51},7.812e-09
Neighborite,NaMgF3,"{""Na"": 1.0, ""Mg"": 1.0, ""F"": 3.0}",104.289,#FFFFFF,cubic,"{9,10,24,35,36}",1.7774e-08
Nekoite,Ca3Si6O15·7H2O,"{""Ca"": 3.0, ""Si"": 6.0, ""O"": 22.0, ""H"": 14.0}",654.834,#FFFFFF,triclinic,{31},3.6517e-08
Nekrasovite,Cu13VSn3S16,"{""Cu"": 13.0, ""V"": 1.0, ""Sn"": 3.0, ""S"": 16.0}",1746.13,#A9A9A9,cubic,{33},2.51e-10
Nelenite,Mn2+16As3+3Si12O36(OH)17,"{""Mn"": 16.0, ""As"": 3.0, ""Si"": 12.0, ""O"": 53.0, ""H"": 17.0}",2305.877,#FFFFFF,monoclinic,{32},1.214e-09
Neltnerite,CaMn3+6O8(SiO4),"{""Ca"": 1.0, ""Mn"": 6.0, ""O"": 12.0, ""Si"": 1.0}",589.779,#FFFFFF,tetragonal,{47},7.508e-09
Nepheline,Na3K(Al4Si4O16),"{""Na"": 3.0, ""K"": 1.0, ""Al"": 4.0, ""Si"": 4.0, ""O"": 16.0}",584.32,#FFFFFF,hexagonal,"{4,6,9,31,35,36,40,51}",1.385864e-05
Nepouite,Ni3Si2O5(OH)4,"{""Ni"": 3.0, ""Si"": 2.0, ""O"": 9.0, ""H"": 4.0}",380.272,#FFFFFF,unknown,"{38,47}",2.42743e-07
Nepskoeite,Mg4Cl(OH)7·6H2O,"{""Mg"": 4.0, ""Cl"": 1.0, ""O"": 13.0, ""H"": 19.0}",359.809,#FFFFFF,orthorhombic,{25},4.7619e-08
Neptunite,KNa2LiFe2+2Ti2Si8O24,"{""K"": 1.0, ""Na"": 2.0, ""Li"": 1.0, ""Fe"": 2.0, ""Ti"": 2.0, ""Si"": 8.0, ""O"": 24.0}",908.098,#556B2F,monoclinic,{35},4.132e-09
Nesquehonite,Mg(CO3)·3H2O,"{""Mg"": 1.0, ""C"": 1.0, ""O"": 6.0, ""H"": 6.0}",138.358,#FFFFFF,monoclinic,"{13,21,25,49,50,53,54,55}",6.56039e-07
Nestolaite,CaSeO3·H2O,"{""Ca"": 1.0, ""Se"": 1.0, ""O"": 4.0, ""H"": 2.0}",185.061,#FFFFFF,monoclinic,{47},1.5015e-07
Newberyite,Mg(PO3OH)·3H2O,"{""Mg"": 1.0, ""P"": 1.0, ""O"": 7.0, ""H"": 7.0}",174.328,#FFFFFF,orthorhombic,"{47,49,50,52,54}",4.9827e-08
Neyite,Ag2Cu6Pb25Bi26S68,"{""Ag"": 2.0, ""Cu"": 6.0, ""Pb"": 25.0, ""Bi"": 26.0, ""S"": 68.0}",13390.576,#708090,monoclinic,{33},2.51e-10
Nezilovite,Pb[Mn4+2Fe3+7AlZn2]O19,"{""Pb"": 1.0, ""Mn"": 2.0, ""Fe"": 7.0, ""Al"": 1.0, ""Zn"": 2.0, ""O"": 19.0}",1169.714,#556B2F,hexagonal,{32},1.214e-09
Niahite,(NH4)Mn2+(PO4)·H2O,"{""N"": 1.0, ""H"": 6.0, ""Mn"": 1.0, ""P"": 1.0, ""O"": 5.0}",185.962,#FFFFFF,orthorhombic,"{47,52}",1.4452e-08
Nickel,Ni,"{""Ni"": 1.0}",58.693,#7FFF00,hexagonal,"{13,36,38}",2.76211e-07
Nickelalumite,NiAl4(SO4)(OH)12(H2O)3,"{""Ni"": 1.0, ""Al"": 4.0, ""S"": 1.0, ""O"": 19.0, ""H"": 18.0}",520.806,#FFFFFF,monoclinic,{},2e-08
Nickelaustinite,CaNi(AsO4)(OH),"{""Ca"": 1.0, ""Ni"": 1.0, ""As"": 1.0, ""O"": 5.0, ""H"": 1.0}",254.696,#FFFFFF,orthorhombic,{47},1.5015e-07
Nickelbischofite,NiCl2·6H2O,"{""Ni"": 1.0, ""Cl"": 2.0, ""H"": 12.0, ""O"": 6.0}",237.683,#FFFFFF,monoclinic,"{13,47,50,54,57}",5.82851e-07
Nickelblodite,Na2Ni(SO4)2·4H2O,"{""Na"": 2.0, ""Ni"": 1.0, ""S"": 2.0, ""O"": 12.0, ""H"": 8.0}",368.845,#FFFFFF,monoclinic,"{25,47}",3.955e-09
Nickelboussingaultite,(NH4)2Ni(SO4)2·6H2O,"{""N"": 2.0, ""H"": 20.0, ""Ni"": 1.0, ""S"": 2.0, ""O"": 14.0}",394.973,#FFFFFF,monoclinic,"{47,55}",3.761e-09
Nickelhexahydrite,Ni(SO4)·6H2O,"{""Ni"": 1.0, ""S"": 1.0, ""O"": 10.0, ""H"": 12.0}",262.839,#FFFFFF,monoclinic,"{43,45,47,55}",2.6454e-08
Nickeline,NiAs,"{""Ni"": 1.0, ""As"": 1.0}",133.615,#7FFF00,orthorhombic,"{33,37}",8.6621e-08
Nickellotharmeyerite,CaNi2(AsO4)2·2H2O,"{""Ca"": 1.0, ""Ni"": 2.0, ""As"": 2.0, ""O"": 10.0, ""H"": 4.0}",471.33,#FFFFFF,monoclinic,{47},1.5015e-07
Nickelphosphide,Ni3P,"{""Ni"": 3.0, ""P"": 1.0}",207.053,#7FFF00,tetragonal,"{4,5,6,33}",3.8048e-08
Nickelpicromerite,K2Ni(SO4)2·6H2O,"{""K"": 2.0, ""Ni"": 1.0, ""S"": 2.0, ""O"": 14.0, ""H"": 12.0}",437.091,#FFFFFF,monoclinic,{47},3.003e-09
Nickelschneebergite,BiNi2(AsO4)2(OH)·H2O,"{""Bi"": 1.0, ""Ni"": 2.0, ""As"": 2.0, ""O"": 10.0, ""H"": 3.0}",639.224,#FFFFFF,monoclinic,{47},1.5015e-07
Nickelskutterudite,NiAs3,"{""Ni"": 1.0, ""As"": 3.0}",283.459,#7FFF00,cubic,"{33,36,38}",1.39504e-07
Nickeltalmessite,Ca2Ni(AsO4)2·2H2O,"{""Ca"": 2.0, ""Ni"": 1.0, ""As"": 2.0, ""O"": 10.0, ""H"": 4.0}",452.715,#FFFFFF,triclinic,{47},1.5015e-07
Nickeltyrrellite,CuNi2Se4,"{""Cu"": 1.0, ""Ni"": 2.0, ""Se"": 4.0}",496.816,#00BFFF,cubic,{33},1.2547e-08
Nickelzippeite,Ni2(UO2)6(SO4)3(OH)10·16H2O,"{""Ni"": 2.0, ""U"": 6.0, ""O"": 50.0, ""S"": 3.0, ""H"": 42.0}",2484.032,#FFFFFF,unknown,"{47,55}",3.761e-09
Nickolayite,FeMoP,"{""Fe"": 1.0, ""Mo"": 1.0, ""P"": 1.0}",182.769,#8B4513,orthorhombic,{51},7.812e-09
Nicksobolevite,Cu7(SeO3)2O2Cl6,"{""Cu"": 7.0, ""Se"": 2.0, ""O"": 8.0, ""Cl"": 6.0}",943.456,#FFFFFF,monoclinic,{45},2.3585e-08
Niedermayrite,Cu4Cd(SO4)2(OH)6·4H2O,"{""Cu"": 4.0, ""Cd"": 1.0, ""S"": 2.0, ""O"": 18.0, ""H"": 14.0}",732.808,#FFFFFF,monoclinic,{47},3.003e-09
Nielsenite,PdCu3,"{""Pd"": 1.0, ""Cu"": 3.0}",297.058,#00BFFF,tetragonal,"{26,37}",1.14074e-07
Nierite,Si3N4,"{""Si"": 3.0, ""N"": 4.0}",140.283,#FFFFFF,hexagonal,{1},4.54545e-07
Nifontovite,Ca3[BO(OH)2]6·2H2O,"{""Ca"": 3.0, ""B"": 6.0, ""O"": 20.0, ""H"": 16.0}",521.202,#FFFFFF,monoclinic,{23},1.758794e-06
Nigelcookite,PbFe2+2V3+2(PO4)3(OH)3,"{""Pb"": 1.0, ""Fe"": 2.0, ""V"": 2.0, ""P"": 3.0, ""O"": 15.0, ""H"": 3.0}",756.705,#556B2F,monoclinic,{},1e-07
Niggliite,PtSn,"{""Pt"": 1.0, ""Sn"": 1.0}",313.79,#FFFFFF,hexagonal,"{6,33,37}",1.35402e-07
Niigataite,CaSrAl3[Si2O7][SiO4]O(OH),"{""Ca"": 1.0, ""Sr"": 1.0, ""Al"": 3.0, ""Si"": 3.0, ""O"": 13.0, ""H"": 1.0}",501.894,#FFFFFF,monoclinic,{40},9.404389e-06
Nikischerite,Fe2+6Al3(OH)18[Na(H2O)6](SO4)2·6H2O,"{""Fe"": 6.0, ""Al"": 3.0, ""O"": 38.0, ""H"": 42.0, ""Na"": 1.0, ""S"": 2.0}",1153.424,#556B2F,hexagonal,{47},3.003e-09
Nikmelnikovite,Ca12Fe2+Fe3+3Al3(SiO4)6(OH)20,"{""Ca"": 12.0, ""Fe"": 4.0, ""Al"": 3.0, ""Si"": 6.0, ""O"": 44.0, ""H"": 20.0}",1677.888,#556B2F,hexagonal,{47},1.95195e-07
Niningerite,MgS,"{""Mg"": 1.0, ""S"": 1.0}",56.365,#A9A9A9,cubic,"{4,5}",6.383e-09
Niobocarbide,NbC,"{""Nb"": 1.0, ""C"": 1.0}",104.917,#FFFFFF,cubic,{26},4e-08
Nioboheftetjernite,ScNbO4,"{""Sc"": 1.0, ""Nb"": 1.0, ""O"": 4.0}",201.858,#FFFFFF,monoclinic,{34},1.773e-08
Niocalite,Ca7Nb(Si2O7)2O3F,"{""Ca"": 7.0, ""Nb"": 1.0, ""Si"": 4.0, ""O"": 17.0, ""F"": 1.0}",776.773,#FFFFFF,monoclinic,"{35,36}",2.407e-09
Nipalarsite,Ni8Pd3As4,"{""Ni"": 8.0, ""Pd"": 3.0, ""As"": 4.0}",1088.492,#7FFF00,cubic,{33},1.2547e-08
Nipeiite-(Ce),Ce9Fe3+(SiO4)6[SiO3(OH)](OH)3,"{""Ce"": 9.0, ""Fe"": 1.0, ""Si"": 7.0, ""O"": 31.0, ""H"": 4.0}",2013.521,#556B2F,hexagonal,{},1e-06
Nisbite,NiSb2,"{""Ni"": 1.0, ""Sb"": 2.0}",302.213,#7FFF00,orthorhombic,{33},1.2547e-08
Nishanbaevite,KAl2O(AsO4)(SO4),"{""K"": 1.0, ""Al"": 2.0, ""O"": 9.0, ""As"": 1.0, ""S"": 1.0}",344.035,#FFFFFF,orthorhombic,{45},4.72e-10
Nisnite,Ni3Sn,"{""Ni"": 3.0, ""Sn"": 1.0}",294.789,#7FFF00,cubic,"{26,38}",1.32593e-07
Nissonite,Cu2Mg2(PO4)2(OH)2·5H2O,"{""Cu"": 2.0, ""Mg"": 2.0, ""P"": 2.0, ""O"": 15.0, ""H"": 12.0}",489.731,#FFFFFF,monoclinic,{47},1.5015e-08
Niter,K(NO3),"{""K"": 1.0, ""N"": 1.0, ""O"": 3.0}",101.102,#FFFFFF,hexagonal,"{48,52,53}",3.65204e-07
Nitratine,Na(NO3),"{""Na"": 1.0, ""N"": 1.0, ""O"": 3.0}",84.994,#FFFFFF,hexagonal,"{14,21,25,53}",4.23606e-07
Nitrobarite,Ba(NO3)2,"{""Ba"": 1.0, ""N"": 2.0, ""O"": 6.0}",261.338,#FFFFFF,cubic,"{25,56,57}",3.21631e-07
Nitrocalcite,Ca(NO3)2·4H2O,"{""Ca"": 1.0, ""N"": 2.0, ""O"": 10.0, ""H"": 8.0}",236.146,#FFFFFF,monoclinic,"{48,52}",2.79734e-07
Nitromagnesite,Mg(NO3)2·6H2O,"{""Mg"": 1.0, ""N"": 2.0, ""O"": 12.0, ""H"": 12.0}",256.403,#FFFFFF,monoclinic,{52},1.38889e-07
Nitroplumbite,[Pb4(OH)4](NO3)4,"{""Pb"": 4.0, ""O"": 16.0, ""H"": 4.0, ""N"": 4.0}",1144.844,#FFFFFF,monoclinic,{53},8.547e-08
Nitscheite,(NH4)2[(UO2)2(SO4)3(H2O)2]·3H2O,"{""N"": 2.0, ""H"": 18.0, ""U"": 2.0, ""O"": 21.0, ""S"": 3.0}",954.377,#FFFFFF,monoclinic,"{47,53}",4.712e-09
Niveolanite,NaBe(CO3)(OH)·2H2O,"{""Na"": 1.0, ""Be"": 1.0, ""C"": 1.0, ""O"": 6.0, ""H"": 5.0}",145.0472,#FFFFFF,tetragonal,{35},1.3774e-08
Nixonite,Na2Ti6O13,"{""Na"": 2.0, ""Ti"": 6.0, ""O"": 13.0}",541.169,#FFFFFF,monoclinic,"{35,41}",1.91632e-07
Nizamoffite,Mn2+Zn2(PO4)2(H2O)4,"{""Mn"": 1.0, ""Zn"": 2.0, ""P"": 2.0, ""O"": 12.0, ""H"": 8.0}",447.698,#FFFFFF,orthorhombic,{34},8.87e-10
Nobleite,CaB6O9(OH)2·3H2O,"{""Ca"": 1.0, ""B"": 6.0, ""O"": 14.0, ""H"": 8.0}",336.988,#FFFFFF,monoclinic,"{25,47}",1.97769e-07
Noelbensonite,BaMn3+2Si2O7(OH)2·H2O,"{""Ba"": 1.0, ""Mn"": 2.0, ""Si"": 2.0, ""O"": 10.0, ""H"": 4.0}",467.398,#FFFFFF,orthorhombic,{32},1.214e-09
Nolanite,V3+4Fe3+O7(OH),"{""V"": 4.0, ""Fe"": 1.0, ""O"": 8.0, ""H"": 1.0}",388.613,#556B2F,hexagonal,{33},1.2547e-08
Nollmotzite,Mg[U5+(U6+O2)2O4F3]·4H2O,"{""Mg"": 1.0, ""U"": 3.0, ""O"": 12.0, ""F"": 3.0, ""H"": 8.0}",995.441,#FFFFFF,monoclinic,{47},7.508e-09
Noonkanbahite,NaKBaTi2(Si4O12)O2,"{""Na"": 1.0, ""K"": 1.0, ""Ba"": 1.0, ""Ti"": 2.0, ""Si"": 4.0, ""O"": 14.0}",631.478,#FFFFFF,orthorhombic,{7},2.439e-08
Norbergite,Mg3(SiO4)F2,"{""Mg"": 3.0, ""Si"": 1.0, ""O"": 4.0, ""F"": 2.0}",202.992,#FFFFFF,orthorhombic,"{7,31,36,40,50,54}",4.81375e-07
Nordenskioldine,CaSn(BO3)2,"{""Ca"": 1.0, ""Sn"": 1.0, ""B"": 2.0, ""O"": 6.0}",276.402,#FFFFFF,hexagonal,"{23,35}",1.772568e-06
Nordite-(Ce),Na3SrCeZnSi6O17,"{""Na"": 3.0, ""Sr"": 1.0, ""Ce"": 1.0, ""Zn"": 1.0, ""Si"": 6.0, ""O"": 17.0}",802.583,#FFFFFF,orthorhombic,{35},1.3774e-08
Nordite-(La),Na3SrLaZnSi6O17,"{""Na"": 3.0, ""Sr"": 1.0, ""La"": 1.0, ""Zn"": 1.0, ""Si"": 6.0, ""O"": 17.0}",801.373,#FFFFFF,orthorhombic,{35},1.3774e-08
Nordstrandite,Al(OH)3,"{""Al"": 1.0, ""O"": 3.0, ""H"": 3.0}",78.003,#FFFFFF,triclinic,{47},4.35435e-07
Norrishite,KLiMn3+2Si4O10O2,"{""K"": 1.0, ""Li"": 1.0, ""Mn"": 2.0, ""Si"": 4.0, ""O"": 12.0}",460.242,#FFFFFF,monoclinic,{32},1.214e-09
Norsethite,BaMg(CO3)2,"{""Ba"": 1.0, ""Mg"": 1.0, ""C"": 2.0, ""O"": 6.0}",281.651,#FFFFFF,hexagonal,"{21,24,32,36,47,56}",5.40434e-07
Northstarite,Pb6(Te4+O3)5(S6+O3S2-),"{""Pb"": 6.0, ""Te"": 5.0, ""O"": 18.0, ""S"": 2.0}",2233.302,#FFFFFF,hexagonal,{47},3.003e-09
Northupite,Na3Mg(CO3)2Cl,"{""Na"": 3.0, ""Mg"": 1.0, ""C"": 2.0, ""O"": 6.0, ""Cl"": 1.0}",248.741,#FFFFFF,cubic,"{24,25}",1.82754e-07
Nosean,Na8(Si6Al6)O24(SO4)·H2O,"{""Na"": 8.0, ""Si"": 6.0, ""Al"": 6.0, ""O"": 29.0, ""S"": 1.0, ""H"": 2.0}",1012.369,#FFFFFF,cubic,"{9,35,45}",2.322e-09
Novacekite,Mg(UO2)2(AsO4)2·10H2O,"{""Mg"": 1.0, ""U"": 2.0, ""O"": 22.0, ""As"": 2.0, ""H"": 20.0}",1022.347,#FFFFFF,monoclinic,{47},1.5015e-07
Novgorodovaite,Ca2(C2O4)Cl2·2H2O,"{""Ca"": 2.0, ""C"": 2.0, ""O"": 6.0, ""Cl"": 2.0, ""H"": 4.0}",275.104,#FFFFFF,monoclinic,{25},4.7619e-08
Novikovite,(NH4)4Mo6+2Mo5+2O8(SO4)5,"{""N"": 4.0, ""H"": 16.0, ""Mo"": 4.0, ""O"": 28.0, ""S"": 5.0}",1064.228,#FFFFFF,monoclinic,{},2e-08
Novodneprite,AuPb3,"{""Au"": 1.0, ""Pb"": 3.0}",818.57,#FFD700,unknown,{33},1.2547e-08
Novograblenovite,(NH4)MgCl3·6H2O,"{""N"": 1.0, ""H"": 16.0, ""Mg"": 1.0, ""Cl"": 3.0, ""O"": 6.0}",256.784,#FFFFFF,monoclinic,{45},2.3585e-08
Nowackiite,Cu6Zn3As4S12,"{""Cu"": 6.0, ""Zn"": 3.0, ""As"": 4.0, ""S"": 12.0}",1261.824,#FFD700,hexagonal,{33},2.51e-10
Nullaginite,Ni2(CO3)(OH)2,"{""Ni"": 2.0, ""C"": 1.0, ""O"": 5.0, ""H"": 2.0}",211.408,#FFFFFF,monoclinic,"{7,13,47}",3.80705e-07
Numanoite,Ca4CuB4O6(OH)6(CO3)2,"{""Ca"": 4.0, ""Cu"": 1.0, ""B"": 4.0, ""O"": 18.0, ""H"": 6.0, ""C"": 2.0}",585.15,#FFFFFF,monoclinic,{23},1.758794e-06
Nuragheite,Th(MoO4)2·H2O,"{""Th"": 1.0, ""Mo"": 2.0, ""O"": 9.0, ""H"": 2.0}",569.947,#FFFFFF,monoclinic,{22},4.0486e-08
Nuwaite,Ni6GeS2,"{""Ni"": 6.0, ""Ge"": 1.0, ""S"": 2.0}",488.908,#A9A9A9,tetragonal,{6},9.76e-10
Nyboite,NaNa2(Mg3Al2)(Si7Al)O22(OH)2,"{""Na"": 3.0, ""Mg"": 3.0, ""Al"": 3.0, ""Si"": 7.0, ""O"": 24.0, ""H"": 2.0}",805.418,#FFFFFF,monoclinic,"{17,35,36}",3.17482e-07
Nyerereite,Na2Ca(CO3)2,"{""Na"": 2.0, ""Ca"": 1.0, ""C"": 2.0, ""O"": 6.0}",206.074,#FFFFFF,hexagonal,"{9,36}",1.13104e-07
Nyholmite,Cd3Zn2(AsO3OH)2(AsO4)2·4H2O,"{""Cd"": 3.0, ""Zn"": 2.0, ""As"": 4.0, ""O"": 20.0, ""H"": 10.0}",1097.738,#FFFFFF,monoclinic,"{47,55}",1.88029e-07
Oberthurite,Rh3Ni32S32,"{""Rh"": 3.0, ""Ni"": 32.0, ""S"": 32.0}",3212.826,#A9A9A9,cubic,{12},1.55e-09
Oberwolfachite,SrFe3+3(AsO4)(SO4)(OH)6,"{""Sr"": 1.0, ""Fe"": 3.0, ""As"": 1.0, ""O"": 14.0, ""S"": 1.0, ""H"": 6.0}",592.171,#556B2F,hexagonal,{47},3.003e-09
Oboniobite,Mg4Nb2O9,"{""Mg"": 4.0, ""Nb"": 2.0, ""O"": 9.0}",427.023,#FFFFFF,hexagonal,{},1e-06
Obradovicite-KCu,[K2(H2O)17Cu(H2O)6][Mo8As2Fe3+3O34(OH)3],"{""K"": 2.0, ""H"": 49.0, ""O"": 60.0, ""Cu"": 1.0, ""Mo"": 8.0, ""As"": 2.0, ""Fe"": 3.0}",2236.053,#556B2F,orthorhombic,{47},1.5015e-07
Obradovicite-NaCu,[Na2(H2O)17Cu(H2O)6][Mo8As2Fe3+3O34(OH)3],"{""Na"": 2.0, ""H"": 49.0, ""O"": 60.0, ""Cu"": 1.0, ""Mo"": 8.0, ""As"": 2.0, ""Fe"": 3.0}",2203.837,#556B2F,orthorhombic,{47},1.5015e-07
Obradovicite-NaNa,[Na2(H2O)16Na(H2O)6][Mo8As2Fe3+3O33(OH)4],"{""Na"": 3.0, ""H"": 48.0, ""O"": 59.0, ""Mo"": 8.0, ""As"": 2.0, ""Fe"": 3.0}",2146.274,#556B2F,orthorhombic,{47},1.5015e-07
Odigitriaite,CsNa5Ca5[Si14B2O38]F2,"{""Cs"": 1.0, ""Na"": 5.0, ""Ca"": 5.0, ""Si"": 14.0, ""B"": 2.0, ""O"": 38.0, ""F"": 2.0}",1509.018,#FFFFFF,monoclinic,{35},6.89e-10
Odikhinchaite,Na9Sr3[(H2O)2Na]Ca6Mn3Zr3NbSi(Si24O72)O(OH)3(CO3)·H2O,"{""Na"": 10.0, ""Sr"": 3.0, ""H"": 9.0, ""O"": 82.0, ""Ca"": 6.0, ""Mn"": 3.0, ""Zr"": 3.0, ""Nb"": 1.0, ""Si"": 25.0, ""C"": 1.0}",3299.746,#FFFFFF,hexagonal,{35},6.89e-10
Odintsovite,K2Na4Ca3Ti2Be4Si12O38,"{""K"": 2.0, ""Na"": 4.0, ""Ca"": 3.0, ""Ti"": 2.0, ""Be"": 4.0, ""Si"": 12.0, ""O"": 38.0}",1367.1548,#FFFFFF,orthorhombic,{35},4.132e-09
Oenite,CoSbAs,"{""Co"": 1.0, ""Sb"": 1.0, ""As"": 1.0}",255.615,#4169E1,orthorhombic,{33},1.2547e-08