name,formula,elements,density,color,crystal_system,dna
Molybdofornacite,CuPb2(MoO4)(AsO4)(OH),"{""Cu"": 1.0, ""Pb"": 2.0, ""Mo"": 1.0, ""O"": 9.0, ""As"": 1.0, ""H"": 1.0}",793.83,#FFFFFF,monoclinic,"{""system"": ""monoclinic"", ""scale"": [0.7, 1.0, 1.3], ""optical"": {""transparent"": 1, ""refraction"": 1.5, ""birefringence"": 0.01}}"
Molybdomenite,PbSe4+O3,"{""Pb"": 1.0, ""Se"": 1.0, ""O"": 3.0}",334.16,#FFFFFF,monoclinic,"{""system"": ""monoclinic"", ""scale"": [0.7, 1.0, 1.3], ""optical"": {""transparent"": 1, ""refraction"": 1.5, ""birefringence"": 0.01}}"
Molybdophyllite,Pb8Mg9[Si10O28(OH)8O2(CO3)3]·H2O,"{""Pb"": 8.0, ""Mg"": 9.0, ""Si"": 10.0, ""O"": 48.0, ""H"": 10.0, ""C"": 3.0}",2971.4,#FFFFFF,monoclinic,"{""system"": ""monoclinic"", ""scale"": [0.7, 1.0, 1.3], ""optical"": {""transparent"": 1, ""refraction"": 1.5, ""birefringence"": 0.01}}"
Molysite,FeCl3,"{""Fe"": 1.0, ""Cl"": 3.0}",162.2,#8B4513,hexagonal,"{""system"": ""hexagonal"", ""scale"": [1.0, 1.0, 1.6], ""optical"": {""transparent"": 0, ""refraction"": 0.0, ""birefringence"": 0.0}}"
Monazite-(Ce),Ce(PO4),"{""Ce"": 1.0, ""P"": 1.0, ""O"": 4.0}",235.09,#FFFFFF,monoclinic,"{""system"": ""monoclinic"", ""scale"": [0.7, 1.0, 1.3], ""optical"": {""transparent"": 1, ""refraction"": 1.5, ""birefringence"": 0.01}}"
Monazite-(Gd),Gd(PO4),"{""Gd"": 1.0, ""P"": 1.0, ""O"": 4.0}",252.22,#FFFFFF,monoclinic,"{""system"": ""monoclinic"", ""scale"": [0.7, 1.0, 1.3], ""optical"": {""transparent"": 1, ""refraction"": 1.5, ""birefringence"": 0.01}}"
Monazite-(La),La(PO4),"{""La"": 1.0, ""P"": 1.0, ""O"": 4.0}",233.88,#FFFFFF,monoclinic,"{""system"": ""monoclinic"", ""scale"": [0.7, 1.0, 1.3], ""optical"": {""transparent"": 1, ""refraction"": 1.5, ""birefringence"": 0.01}}"
Monazite-(Nd),Nd(PO4),"{""Nd"": 1.0, ""P"": 1.0, ""O"": 4.0}",239.21,#FFFFFF,monoclinic,"{""system"": ""monoclinic"", ""scale"": [0.7, 1.0, 1.3], ""optical"": {""transparent"": 1, ""refraction"": 1.5, ""birefringence"": 0.01}}"
Monazite-(Sm),Sm(PO4),"{""Sm"": 1.0, ""P"": 1.0, ""O"": 4.0}",245.33,#FFFFFF,monoclinic,"{""system"": ""monoclinic"", ""scale"": [0.7, 1.0, 1.3], ""optical"": {""transparent"": 1, ""refraction"": 1.5, ""birefringence"": 0.01}}"
Monchetundraite,Pd2NiTe2,"{""Pd"": 2.0, ""Ni"": 1.0, ""Te"": 2.0}",526.73,#7FFF00,orthorhombic,"{""system"": ""orthorhombic"", ""scale"": [0.8, 1.0, 1.2], ""optical"": {""transparent"": 0, ""refraction"": 0.0, ""birefringence"": 0.0}}"
Monetite,Ca(PO3OH),"{""Ca"": 1.0, ""P"": 1.0, ""O"": 4.0, ""H"": 1.0}",136.06,#FFFFFF,triclinic,"{""system"": ""triclinic"", ""scale"": [0.7, 1.0, 1.3], ""optical"": {""transparent"": 1, ""refraction"": 1.5, ""birefringence"": 0.01}}"
Mongolite,Ca4Nb6Si5O24(OH)10·6H2O,"{""Ca"": 4.0, ""Nb"": 6.0, ""Si"": 5.0, ""O"": 40.0, ""H"": 22.0}",1520.41,#FFFFFF,tetragonal,"{""system"": ""tetragonal"", ""scale"": [1.0, 1.0, 1.4], ""optical"": {""transparent"": 1, ""refraction"": 1.5, ""birefringence"": 0.01}}"
Monimolite,Pb2Sb5+2O7,"{""Pb"": 2.0, ""Sb"": 2.0, ""O"": 7.0}",769.92,#A9A9A9,,"{""system"": """", ""scale"": [1.0, 1.0, 1.0], ""optical"": {""transparent"": 0, ""refraction"": 0.0, ""birefringence"": 0.0}}"
Monipite,MoNiP,"{""Mo"": 1.0, ""Ni"": 1.0, ""P"": 1.0}",185.61,#7FFF00,hexagonal,"{""system"": ""hexagonal"", ""scale"": [1.0, 1.0, 1.6], ""optical"": {""transparent"": 0, ""refraction"": 0.0, ""birefringence"": 0.0}}"
Monohydrocalcite,Ca(CO3)·H2O,"{""Ca"": 1.0, ""C"": 1.0, ""O"": 4.0, ""H"": 2.0}",118.11,#FFFFFF,hexagonal,"{""system"": ""hexagonal"", ""scale"": [1.0, 1.0, 1.6], ""optical"": {""transparent"": 1, ""refraction"": 1.5, ""birefringence"": 0.01}}"
Montebrasite,LiAl(PO4)(OH),"{""Li"": 1.0, ""Al"": 1.0, ""P"": 1.0, ""O"": 5.0, ""H"": 1.0}",145.9,#FFFFFF,triclinic,"{""system"": ""triclinic"", ""scale"": [0.7, 1.0, 1.3], ""optical"": {""transparent"": 1, ""refraction"": 1.5, ""birefringence"": 0.01}}"
Monteneveite,Ca3Sb5+2(Fe3+2Fe2+)O12,"{""Ca"": 3.0, ""Sb"": 2.0, ""Fe"": 3.0, ""O"": 12.0}",723.31,#556B2F,cubic,"{""system"": ""cubic"", ""scale"": [1.0, 1.0, 1.0], ""optical"": {""transparent"": 0, ""refraction"": 0.0, ""birefringence"": 0.0}}"
Monteponite,CdO,"{""Cd"": 1.0, ""O"": 1.0}",128.41,#FFFFFF,cubic,"{""system"": ""cubic"", ""scale"": [1.0, 1.0, 1.0], ""optical"": {""transparent"": 1, ""refraction"": 1.5, ""birefringence"": 0.0}}"
Monteregianite-(Y),KNa2YSi8O19·5H2O,"{""K"": 1.0, ""Na"": 2.0, ""Y"": 1.0, ""Si"": 8.0, ""O"": 24.0, ""H"": 10.0}",792.79,#FFFFFF,monoclinic,"{""system"": ""monoclinic"", ""scale"": [0.7, 1.0, 1.3], ""optical"": {""transparent"": 1, ""refraction"": 1.5, ""birefringence"": 0.01}}"
Montesommaite,K9(Si23Al9)O64·10H2O,"{""K"": 9.0, ""Si"": 23.0, ""Al"": 9.0, ""O"": 74.0, ""H"": 20.0}",2444.95,#FFFFFF,tetragonal,"{""system"": ""tetragonal"", ""scale"": [1.0, 1.0, 1.4], ""optical"": {""transparent"": 1, ""refraction"": 1.5, ""birefringence"": 0.01}}"
Montetrisaite,Cu6(SO4)(OH)10·2H2O,"{""Cu"": 6.0, ""S"": 1.0, ""O"": 16.0, ""H"": 14.0}",683.47,#FFFFFF,orthorhombic,"{""system"": ""orthorhombic"", ""scale"": [0.8, 1.0, 1.2], ""optical"": {""transparent"": 1, ""refraction"": 1.5, ""birefringence"": 0.01}}"
Montgomeryite,Ca4MgAl4(PO4)6(OH)4·12H2O,"{""Ca"": 4.0, ""Mg"": 1.0, ""Al"": 4.0, ""P"": 6.0, ""O"": 40.0, ""H"": 28.0}",1146.59,#FFFFFF,monoclinic,"{""system"": ""monoclinic"", ""scale"": [0.7, 1.0, 1.3], ""optical"": {""transparent"": 1, ""refraction"": 1.5, ""birefringence"": 0.01}}"
Monticellite,CaMg(SiO4),"{""Ca"": 1.0, ""Mg"": 1.0, ""Si"": 1.0, ""O"": 4.0}",156.48,#FFFFFF,orthorhombic,"{""system"": ""orthorhombic"", ""scale"": [0.8, 1.0, 1.2], ""optical"": {""transparent"": 1, ""refraction"": 1.5, ""birefringence"": 0.01}}"
Montpelvouxite,AgPb16Sb27As18S84,"{""Ag"": 1.0, ""Pb"": 16.0, ""Sb"": 27.0, ""As"": 18.0, ""S"": 84.0}",10752.19,#708090,triclinic,"{""system"": ""triclinic"", ""scale"": [0.7, 1.0, 1.3], ""optical"": {""transparent"": 0, ""refraction"": 0.0, ""birefringence"": 0.0}}"
Montroyalite,Sr4Al8(CO3)3(OH)26·10H2O,"{""Sr"": 4.0, ""Al"": 8.0, ""C"": 3.0, ""O"": 45.0, ""H"": 46.0}",1368.72,#FFFFFF,,"{""system"": """", ""scale"": [1.0, 1.0, 1.0], ""optical"": {""transparent"": 1, ""refraction"": 1.5, ""birefringence"": 0.01}}"
Montroydite,HgO,"{""Hg"": 1.0, ""O"": 1.0}",216.59,#FFFFFF,orthorhombic,"{""system"": ""orthorhombic"", ""scale"": [0.8, 1.0, 1.2], ""optical"": {""transparent"": 1, ""refraction"": 1.5, ""birefringence"": 0.01}}"
Mooihoekite,Cu9Fe9S16,"{""Cu"": 9.0, ""Fe"": 9.0, ""S"": 16.0}",1587.56,#DAA520,tetragonal,"{""system"": ""tetragonal"", ""scale"": [1.0, 1.0, 1.4], ""optical"": {""transparent"": 0, ""refraction"": 0.0, ""birefringence"": 0.0}}"
Mooreite,Mg15(SO4)2(OH)26·8H2O,"{""Mg"": 15.0, ""S"": 2.0, ""O"": 42.0, ""H"": 42.0}",1143.11,#FFFFFF,monoclinic,"{""system"": ""monoclinic"", ""scale"": [0.7, 1.0, 1.3], ""optical"": {""transparent"": 1, ""refraction"": 1.5, ""birefringence"": 0.01}}"
Moorhouseite,Co(SO4)·6H2O,"{""Co"": 1.0, ""S"": 1.0, ""O"": 10.0, ""H"": 12.0}",263.09,#FFFFFF,monoclinic,"{""system"": ""monoclinic"", ""scale"": [0.7, 1.0, 1.3], ""optical"": {""transparent"": 1, ""refraction"": 1.5, ""birefringence"": 0.01}}"
Mopungite,NaSb5+(OH)6,"{""Na"": 1.0, ""Sb"": 1.0, ""O"": 6.0, ""H"": 6.0}",246.8,#FFFFFF,tetragonal,"{""system"": ""tetragonal"", ""scale"": [1.0, 1.0, 1.4], ""optical"": {""transparent"": 1, ""refraction"": 1.5, ""birefringence"": 0.01}}"
Moraesite,Be2(PO4)(OH)·4H2O,"{""Be"": 2.0, ""P"": 1.0, ""O"": 9.0, ""H"": 9.0}",202.06,#FFFFFF,monoclinic,"{""system"": ""monoclinic"", ""scale"": [0.7, 1.0, 1.3], ""optical"": {""transparent"": 1, ""refraction"": 1.5, ""birefringence"": 0.01}}"
Moragite,Ca3TiSi2(Al2Si)O14,"{""Ca"": 3.0, ""Ti"": 1.0, ""Si"": 3.0, ""Al"": 2.0, ""O"": 14.0}",530.34,#FFFFFF,hexagonal,"{""system"": ""hexagonal"", ""scale"": [1.0, 1.0, 1.6], ""optical"": {""transparent"": 1, ""refraction"": 1.5, ""birefringence"": 0.01}}"
Moraskoite,Na2Mg(PO4)F,"{""Na"": 2.0, ""Mg"": 1.0, ""P"": 1.0, ""O"": 4.0, ""F"": 1.0}",184.26,#FFFFFF,orthorhombic,"{""system"": ""orthorhombic"", ""scale"": [0.8, 1.0, 1.2], ""optical"": {""transparent"": 1, ""refraction"": 1.5, ""birefringence"": 0.01}}"
Moreauite,Al3(UO2)(PO4)3(OH)2·13H2O,"{""Al"": 3.0, ""U"": 1.0, ""O"": 29.0, ""P"": 3.0, ""H"": 28.0}",904.1,#FFFFFF,monoclinic,"{""system"": ""monoclinic"", ""scale"": [0.7, 1.0, 1.3], ""optical"": {""transparent"": 1, ""refraction"": 1.5, ""birefringence"": 0.01}}"
Morelandite,Ca2Ba3(AsO4)3Cl,"{""Ca"": 2.0, ""Ba"": 3.0, ""As"": 3.0, ""O"": 12.0, ""Cl"": 1.0}",944.36,#FFFFFF,hexagonal,"{""system"": ""hexagonal"", ""scale"": [1.0, 1.0, 1.6], ""optical"": {""transparent"": 1, ""refraction"": 1.5, ""birefringence"": 0.01}}"
Morenosite,Ni(SO4)·7H2O,"{""Ni"": 1.0, ""S"": 1.0, ""O"": 11.0, ""H"": 14.0}",280.86,#FFFFFF,orthorhombic,"{""system"": ""orthorhombic"", ""scale"": [0.8, 1.0, 1.2], ""optical"": {""transparent"": 1, ""refraction"": 1.5, ""birefringence"": 0.01}}"
Morimotoite,Ca3(TiFe2+)(SiO4)3,"{""Ca"": 3.0, ""Ti"": 1.0, ""Fe"": 1.0, ""Si"": 3.0, ""O"": 12.0}",500.23,#556B2F,cubic,"{""system"": ""cubic"", ""scale"": [1.0, 1.0, 1.0], ""optical"": {""transparent"": 0, ""refraction"": 0.0, ""birefringence"": 0.0}}"
Morinite,NaCa2Al2(PO4)2(OH)F4·2H2O,"{""Na"": 1.0, ""Ca"": 2.0, ""Al"": 2.0, ""P"": 2.0, ""O"": 11.0, ""H"": 5.0, ""F"": 4.0}",476.09,#FFFFFF,monoclinic,"{""system"": ""monoclinic"", ""scale"": [0.7, 1.0, 1.3], ""optical"": {""transparent"": 1, ""refraction"": 1.5, ""birefringence"": 0.01}}"
Morrisonite,Ca11(As3+V4+2V5+10As5+6O51)2·78H2O,"{""Ca"": 11.0, ""As"": 14.0, ""V"": 24.0, ""O"": 180.0, ""H"": 156.0}",5749.57,#FFFFFF,monoclinic,"{""system"": ""monoclinic"", ""scale"": [0.7, 1.0, 1.3], ""optical"": {""transparent"": 1, ""refraction"": 1.5, ""birefringence"": 0.01}}"
Moschelite,HgI,"{""Hg"": 1.0, ""I"": 1.0}",327.49,#FFFFFF,tetragonal,"{""system"": ""tetragonal"", ""scale"": [1.0, 1.0, 1.4], ""optical"": {""transparent"": 1, ""refraction"": 1.5, ""birefringence"": 0.01}}"
Moschellandsbergite,Ag2Hg3,"{""Ag"": 2.0, ""Hg"": 3.0}",817.51,#C0C0C0,cubic,"{""system"": ""cubic"", ""scale"": [1.0, 1.0, 1.0], ""optical"": {""transparent"": 0, ""refraction"": 0.0, ""birefringence"": 0.0}}"
Mosesite,(Hg2N)Cl,"{""Hg"": 2.0, ""N"": 1.0, ""Cl"": 1.0}",450.64,#FFFFFF,cubic,"{""system"": ""cubic"", ""scale"": [1.0, 1.0, 1.0], ""optical"": {""transparent"": 1, ""refraction"": 1.5, ""birefringence"": 0.0}}"
Moskvinite-(Y),Na2KYSi6O15,"{""Na"": 2.0, ""K"": 1.0, ""Y"": 1.0, ""Si"": 6.0, ""O"": 15.0}",582.53,#FFFFFF,orthorhombic,"{""system"": ""orthorhombic"", ""scale"": [0.8, 1.0, 1.2], ""optical"": {""transparent"": 1, ""refraction"": 1.5, ""birefringence"": 0.01}}"
Mossbauerite,Fe3+6O4(OH)8(CO3)·3H2O,"{""Fe"": 6.0, ""O"": 18.0, ""H"": 14.0, ""C"": 1.0}",649.22,#556B2F,hexagonal,"{""system"": ""hexagonal"", ""scale"": [1.0, 1.0, 1.6], ""optical"": {""transparent"": 0, ""refraction"": 0.0, ""birefringence"": 0.0}}"
Mottramite,PbCu(VO4)(OH),"{""Pb"": 1.0, ""Cu"": 1.0, ""V"": 1.0, ""O"": 5.0, ""H"": 1.0}",402.7,#FFFFFF,orthorhombic,"{""system"": ""orthorhombic"", ""scale"": [0.8, 1.0, 1.2], ""optical"": {""transparent"": 1, ""refraction"": 1.5, ""birefringence"": 0.01}}"
Motukoreaite,Mg6Al3(OH)18[Na(H2O)6](SO4)2·6H2O,"{""Mg"": 6.0, ""Al"": 3.0, ""O"": 38.0, ""H"": 42.0, ""Na"": 1.0, ""S"": 2.0}",964.25,#FFFFFF,hexagonal,"{""system"": ""hexagonal"", ""scale"": [1.0, 1.0, 1.6], ""optical"": {""transparent"": 1, ""refraction"": 1.5, ""birefringence"": 0.01}}"
Mounanaite,PbFe3+2(VO4)2(OH)2,"{""Pb"": 1.0, ""Fe"": 2.0, ""V"": 2.0, ""O"": 10.0, ""H"": 2.0}",582.8,#556B2F,monoclinic,"{""system"": ""monoclinic"", ""scale"": [0.7, 1.0, 1.3], ""optical"": {""transparent"": 0, ""refraction"": 0.0, ""birefringence"": 0.0}}"
Mountainite,KNa2Ca2[Si8O19(OH)]·6H2O,"{""K"": 1.0, ""Na"": 2.0, ""Ca"": 2.0, ""Si"": 8.0, ""O"": 26.0, ""H"": 13.0}",819.06,#FFFFFF,monoclinic,"{""system"": ""monoclinic"", ""scale"": [0.7, 1.0, 1.3], ""optical"": {""transparent"": 1, ""refraction"": 1.5, ""birefringence"": 0.01}}"
Mourite,(UO2)(Mo6+)5O16·5H2O,"{""U"": 1.0, ""O"": 23.0, ""Mo"": 5.0, ""H"": 10.0}",1095.86,#FFFFFF,monoclinic,"{""system"": ""monoclinic"", ""scale"": [0.7, 1.0, 1.3], ""optical"": {""transparent"": 1, ""refraction"": 1.5, ""birefringence"": 0.01}}"
Moxuanxueite,NaCa6Zr(Si2O7)2OF3,"{""Na"": 1.0, ""Ca"": 6.0, ""Zr"": 1.0, ""Si"": 4.0, ""O"": 15.0, ""F"": 3.0}",764.05,#FFFFFF,triclinic,"{""system"": ""triclinic"", ""scale"": [0.7, 1.0, 1.3], ""optical"": {""transparent"": 1, ""refraction"": 1.5, ""birefringence"": 0.01}}"
Moydite-(Y),YB(OH)4(CO3),"{""Y"": 1.0, ""B"": 1.0, ""O"": 7.0, ""H"": 4.0, ""C"": 1.0}",227.76,#FFFFFF,orthorhombic,"{""system"": ""orthorhombic"", ""scale"": [0.8, 1.0, 1.2], ""optical"": {""transparent"": 1, ""refraction"": 1.5, ""birefringence"": 0.01}}"
Mozgovaite,PbBi4S7,"{""Pb"": 1.0, ""Bi"": 4.0, ""S"": 7.0}",1267.54,#708090,orthorhombic,"{""system"": ""orthorhombic"", ""scale"": [0.8, 1.0, 1.2], ""optical"": {""transparent"": 0, ""refraction"": 0.0, ""birefringence"": 0.0}}"
Mpororoite,Al2O(WO4)2·6H2O,"{""Al"": 2.0, ""O"": 15.0, ""W"": 2.0, ""H"": 12.0}",673.74,#FFFFFF,triclinic,"{""system"": ""triclinic"", ""scale"": [0.7, 1.0, 1.3], ""optical"": {""transparent"": 1, ""refraction"": 1.5, ""birefringence"": 0.01}}"
Mrazekite,Bi2Cu3(PO4)2O2(OH)2·2H2O,"{""Bi"": 2.0, ""Cu"": 3.0, ""P"": 2.0, ""O"": 14.0, ""H"": 6.0}",900.6,#FFFFFF,monoclinic,"{""system"": ""monoclinic"", ""scale"": [0.7, 1.0, 1.3], ""optical"": {""transparent"": 1, ""refraction"": 1.5, ""birefringence"": 0.01}}"
Mroseite,CaTe4+O2(CO3),"{""Ca"": 1.0, ""Te"": 1.0, ""O"": 5.0, ""C"": 1.0}",259.69,#FFFFFF,orthorhombic,"{""system"": ""orthorhombic"", ""scale"": [0.8, 1.0, 1.2], ""optical"": {""transparent"": 1, ""refraction"": 1.5, ""birefringence"": 0.01}}"
Muckeite,CuNiBiS3,"{""Cu"": 1.0, ""Ni"": 1.0, ""Bi"": 1.0, ""S"": 3.0}",427.4,#A9A9A9,orthorhombic,"{""system"": ""orthorhombic"", ""scale"": [0.8, 1.0, 1.2], ""optical"": {""transparent"": 0, ""refraction"": 0.0, ""birefringence"": 0.0}}"
Mukhinite,Ca2(Al2V3+)[Si2O7][SiO4]O(OH),"{""Ca"": 2.0, ""Al"": 2.0, ""V"": 1.0, ""Si"": 3.0, ""O"": 13.0, ""H"": 1.0}",478.34,#FFFFFF,monoclinic,"{""system"": ""monoclinic"", ""scale"": [0.7, 1.0, 1.3], ""optical"": {""transparent"": 1, ""refraction"": 1.5, ""birefringence"": 0.01}}"
Mullerite,Pb2Fe3+(Te6+O6)Cl,"{""Pb"": 2.0, ""Fe"": 1.0, ""Te"": 1.0, ""O"": 6.0, ""Cl"": 1.0}",729.3,#556B2F,hexagonal,"{""system"": ""hexagonal"", ""scale"": [1.0, 1.0, 1.6], ""optical"": {""transparent"": 0, ""refraction"": 0.0, ""birefringence"": 0.0}}"
Munakataite,Pb2Cu2(Se4+O3)(SO4)(OH)4,"{""Pb"": 2.0, ""Cu"": 2.0, ""Se"": 1.0, ""O"": 11.0, ""S"": 1.0, ""H"": 4.0}",832.55,#FFFFFF,monoclinic,"{""system"": ""monoclinic"", ""scale"": [0.7, 1.0, 1.3], ""optical"": {""transparent"": 1, ""refraction"": 1.5, ""birefringence"": 0.01}}"
Mundrabillaite,(NH4)2Ca(PO3OH)2·H2O,"{""N"": 2.0, ""H"": 12.0, ""Ca"": 1.0, ""P"": 2.0, ""O"": 9.0}",286.14,#FFFFFF,monoclinic,"{""system"": ""monoclinic"", ""scale"": [0.7, 1.0, 1.3], ""optical"": {""transparent"": 1, ""refraction"": 1.5, ""birefringence"": 0.01}}"
Muonionalustaite,Ni3(OH)4Cl2·4H2O,"{""Ni"": 3.0, ""O"": 8.0, ""H"": 12.0, ""Cl"": 2.0}",387.07,#FFFFFF,monoclinic,"{""system"": ""monoclinic"", ""scale"": [0.7, 1.0, 1.3], ""optical"": {""transparent"": 1, ""refraction"": 1.5, ""birefringence"": 0.01}}"
Murakamiite,Ca2LiSi3O8(OH),"{""Ca"": 2.0, ""Li"": 1.0, ""Si"": 3.0, ""O"": 9.0, ""H"": 1.0}",316.38,#FFFFFF,triclinic,"{""system"": ""triclinic"", ""scale"": [0.7, 1.0, 1.3], ""optical"": {""transparent"": 1, ""refraction"": 1.5, ""birefringence"": 0.01}}"
Murashkoite,FeP,"{""Fe"": 1.0, ""P"": 1.0}",86.82,#8B4513,orthorhombic,"{""system"": ""orthorhombic"", ""scale"": [0.8, 1.0, 1.2], ""optical"": {""transparent"": 0, ""refraction"": 0.0, ""birefringence"": 0.0}}"
Murchisite,Cr5S6,"{""Cr"": 5.0, ""S"": 6.0}",452.36,#A9A9A9,hexagonal,"{""system"": ""hexagonal"", ""scale"": [1.0, 1.0, 1.6], ""optical"": {""transparent"": 0, ""refraction"": 0.0, ""birefringence"": 0.0}}"
Murdochite,Cu12Pb2O15Cl2,"{""Cu"": 12.0, ""Pb"": 2.0, ""O"": 15.0, ""Cl"": 2.0}",1487.9,#FFFFFF,cubic,"{""system"": ""cubic"", ""scale"": [1.0, 1.0, 1.0], ""optical"": {""transparent"": 1, ""refraction"": 1.5, ""birefringence"": 0.0}}"
Murmanite,Na2Ti2Na2Ti2(Si2O7)2O4(H2O)4,"{""Na"": 4.0, ""Ti"": 4.0, ""Si"": 4.0, ""O"": 22.0, ""H"": 8.0}",755.86,#FFFFFF,triclinic,"{""system"": ""triclinic"", ""scale"": [0.7, 1.0, 1.3], ""optical"": {""transparent"": 1, ""refraction"": 1.5, ""birefringence"": 0.01}}"
Murphyite,Pb(Te6+O4),"{""Pb"": 1.0, ""Te"": 1.0, ""O"": 4.0}",398.8,#FFFFFF,unknown,"{""system"": ""unknown"", ""scale"": [1.0, 1.0, 1.0], ""optical"": {""transparent"": 1, ""refraction"": 1.5, ""birefringence"": 0.01}}"
Muscovite,KAl2(Si3Al)O10(OH)2,"{""K"": 1.0, ""Al"": 3.0, ""Si"": 3.0, ""O"": 12.0, ""H"": 2.0}",398.33,#FFFFFF,hexagonal,"{""system"": ""hexagonal"", ""scale"": [1.0, 1.0, 1.6], ""optical"": {""transparent"": 1, ""refraction"": 1.5, ""birefringence"": 0.01}}"
Muskoxite,Mg7Fe3+4(OH)26·H2O (?),"{""Mg"": 7.0, ""Fe"": 4.0, ""O"": 27.0, ""H"": 28.0}",853.79,#556B2F,,"{""system"": """", ""scale"": [1.0, 1.0, 1.0], ""optical"": {""transparent"": 0, ""refraction"": 0.0, ""birefringence"": 0.0}}"
Muthmannite,AuAgTe2,"{""Au"": 1.0, ""Ag"": 1.0, ""Te"": 2.0}",560.04,#FFD700,monoclinic,"{""system"": ""monoclinic"", ""scale"": [0.7, 1.0, 1.3], ""optical"": {""transparent"": 0, ""refraction"": 0.0, ""birefringence"": 0.0}}"
Mutinaite,Na3Ca4Al11Si85O192·60H2O,"{""Na"": 3.0, ""Ca"": 4.0, ""Al"": 11.0, ""Si"": 85.0, ""O"": 252.0, ""H"": 120.0}",7066.68,#FFFFFF,orthorhombic,"{""system"": ""orthorhombic"", ""scale"": [0.8, 1.0, 1.2], ""optical"": {""transparent"": 1, ""refraction"": 1.5, ""birefringence"": 0.01}}"
Naalasite,NaAl(AsO3OH)2·H2O,"{""Na"": 1.0, ""Al"": 1.0, ""As"": 2.0, ""O"": 9.0, ""H"": 4.0}",347.84,#FFFFFF,hexagonal,"{""system"": ""hexagonal"", ""scale"": [1.0, 1.0, 1.6], ""optical"": {""transparent"": 1, ""refraction"": 1.5, ""birefringence"": 0.01}}"
Nabalamprophyllite,(BaNa)Ti2Na3Ti(Si2O7)2O2(OH)2,"{""Ba"": 1.0, ""Na"": 4.0, ""Ti"": 3.0, ""Si"": 4.0, ""O"": 18.0, ""H"": 2.0}",775.28,#FFFFFF,orthorhombic,"{""system"": ""orthorhombic"", ""scale"": [0.8, 1.0, 1.2], ""optical"": {""transparent"": 1, ""refraction"": 1.5, ""birefringence"": 0.01}}"
Nabaphite,NaBa(PO4)·9H2O,"{""Na"": 1.0, ""Ba"": 1.0, ""P"": 1.0, ""O"": 13.0, ""H"": 18.0}",417.43,#FFFFFF,cubic,"{""system"": ""cubic"", ""scale"": [1.0, 1.0, 1.0], ""optical"": {""transparent"": 1, ""refraction"": 1.5, ""birefringence"": 0.0}}"
Nabateaite,Fe2P2O7,"{""Fe"": 2.0, ""P"": 2.0, ""O"": 7.0}",285.64,#8B4513,triclinic,"{""system"": ""triclinic"", ""scale"": [0.7, 1.0, 1.3], ""optical"": {""transparent"": 0, ""refraction"": 0.0, ""birefringence"": 0.0}}"
Nabesite,Na2BeSi4O10·4H2O,"{""Na"": 2.0, ""Be"": 1.0, ""Si"": 4.0, ""O"": 14.0, ""H"": 8.0}",399.41,#FFFFFF,orthorhombic,"{""system"": ""orthorhombic"", ""scale"": [0.8, 1.0, 1.2], ""optical"": {""transparent"": 1, ""refraction"": 1.5, ""birefringence"": 0.01}}"
Nabimusaite,KCa12(SiO4)4(SO4)2O2F,"{""K"": 1.0, ""Ca"": 12.0, ""Si"": 4.0, ""O"": 26.0, ""S"": 2.0, ""F"": 1.0}",1131.54,#FFFFFF,hexagonal,"{""system"": ""hexagonal"", ""scale"": [1.0, 1.0, 1.6], ""optical"": {""transparent"": 1, ""refraction"": 1.5, ""birefringence"": 0.01}}"
Nabokoite,Cu7Te4+O4(SO4)5·KCl,"{""Cu"": 7.0, ""Te"": 1.0, ""O"": 24.0, ""S"": 5.0, ""K"": 1.0, ""Cl"": 1.0}",1191.3,#FFFFFF,tetragonal,"{""system"": ""tetragonal"", ""scale"": [1.0, 1.0, 1.4], ""optical"": {""transparent"": 1, ""refraction"": 1.5, ""birefringence"": 0.01}}"
Nacaphite,Na2Ca(PO4)F,"{""Na"": 2.0, ""Ca"": 1.0, ""P"": 1.0, ""O"": 4.0, ""F"": 1.0}",200.03,#FFFFFF,triclinic,"{""system"": ""triclinic"", ""scale"": [0.7, 1.0, 1.3], ""optical"": {""transparent"": 1, ""refraction"": 1.5, ""birefringence"": 0.01}}"