name,formula,elements,density,color,crystal_system,dna
Ferrotorryweiserite,Rh5Fe10S16,"{""Rh"": 5.0, ""Fe"": 10.0, ""S"": 16.0}",1586.01,#DAA520,hexagonal,"{""system"": ""hexagonal"", ""scale"": [1.0, 1.0, 1.6], ""optical"": {""transparent"": 0, ""refraction"": 0.0, ""birefringence"": 0.0}}"
Ferrotychite,Na6Fe2+2(CO3)4(SO4),"{""Na"": 6.0, ""Fe"": 2.0, ""C"": 4.0, ""O"": 16.0, ""S"": 1.0}",585.74,#556B2F,cubic,"{""system"": ""cubic"", ""scale"": [1.0, 1.0, 1.0], ""optical"": {""transparent"": 0, ""refraction"": 0.0, ""birefringence"": 0.0}}"
Ferrovorontsovite,(Fe5Cu)TlAs4S12,"{""Fe"": 5.0, ""Cu"": 1.0, ""Tl"": 1.0, ""As"": 4.0, ""S"": 12.0}",1231.58,#DAA520,cubic,"{""system"": ""cubic"", ""scale"": [1.0, 1.0, 1.0], ""optical"": {""transparent"": 0, ""refraction"": 0.0, ""birefringence"": 0.0}}"
Ferrowyllieite,NaNaFe2+(Fe2+Al)(PO4)3,"{""Na"": 2.0, ""Fe"": 2.0, ""Al"": 1.0, ""P"": 3.0, ""O"": 12.0}",469.57,#556B2F,monoclinic,"{""system"": ""monoclinic"", ""scale"": [0.7, 1.0, 1.3], ""optical"": {""transparent"": 0, ""refraction"": 0.0, ""birefringence"": 0.0}}"
Ferruccite,NaBF4,"{""Na"": 1.0, ""B"": 1.0, ""F"": 4.0}",109.8,#FFFFFF,orthorhombic,"{""system"": ""orthorhombic"", ""scale"": [0.8, 1.0, 1.2], ""optical"": {""transparent"": 1, ""refraction"": 1.5, ""birefringence"": 0.01}}"
Fersmite,CaNb2O6,"{""Ca"": 1.0, ""Nb"": 2.0, ""O"": 6.0}",321.9,#FFFFFF,orthorhombic,"{""system"": ""orthorhombic"", ""scale"": [0.8, 1.0, 1.2], ""optical"": {""transparent"": 1, ""refraction"": 1.5, ""birefringence"": 0.01}}"
Feruvite,CaFe2+3(Al5Mg)(Si6O18)(BO3)3(OH)3(OH),"{""Ca"": 1.0, ""Fe"": 3.0, ""Al"": 5.0, ""Mg"": 1.0, ""Si"": 6.0, ""O"": 31.0, ""B"": 3.0, ""H"": 4.0}",1067.84,#556B2F,hexagonal,"{""system"": ""hexagonal"", ""scale"": [1.0, 1.0, 1.6], ""optical"": {""transparent"": 0, ""refraction"": 0.0, ""birefringence"": 0.0}}"
Fervanite,Fe3+4V5+4O16·5H2O,"{""Fe"": 4.0, ""V"": 4.0, ""O"": 21.0, ""H"": 10.0}",773.24,#556B2F,,"{""system"": """", ""scale"": [1.0, 1.0, 1.0], ""optical"": {""transparent"": 0, ""refraction"": 0.0, ""birefringence"": 0.0}}"
Fettelite,[Ag6As2S7][Ag10HgAs2S8],"{""Ag"": 16.0, ""As"": 4.0, ""S"": 15.0, ""Hg"": 1.0}",2707.09,#FFD700,hexagonal,"{""system"": ""hexagonal"", ""scale"": [1.0, 1.0, 1.6], ""optical"": {""transparent"": 0, ""refraction"": 0.0, ""birefringence"": 0.0}}"
Fibroferrite,Fe3+(SO4)(OH)·5H2O,"{""Fe"": 1.0, ""S"": 1.0, ""O"": 10.0, ""H"": 11.0}",259.0,#556B2F,hexagonal,"{""system"": ""hexagonal"", ""scale"": [1.0, 1.0, 1.6], ""optical"": {""transparent"": 0, ""refraction"": 0.0, ""birefringence"": 0.0}}"
Fichtelite,C19H34,"{""C"": 19.0, ""H"": 34.0}",262.46,#FFFFFF,monoclinic,"{""system"": ""monoclinic"", ""scale"": [0.7, 1.0, 1.3], ""optical"": {""transparent"": 1, ""refraction"": 1.5, ""birefringence"": 0.01}}"
Fiedlerite,Pb3Cl4F(OH)·H2O,"{""Pb"": 3.0, ""Cl"": 4.0, ""F"": 1.0, ""O"": 2.0, ""H"": 3.0}",817.42,#FFFFFF,monoclinic,"{""system"": ""monoclinic"", ""scale"": [0.7, 1.0, 1.3], ""optical"": {""transparent"": 1, ""refraction"": 1.5, ""birefringence"": 0.01}}"
Fiemmeite,Cu2(C2O4)(OH)2·2H2O,"{""Cu"": 2.0, ""C"": 2.0, ""O"": 8.0, ""H"": 6.0}",285.17,#FFFFFF,monoclinic,"{""system"": ""monoclinic"", ""scale"": [0.7, 1.0, 1.3], ""optical"": {""transparent"": 1, ""refraction"": 1.5, ""birefringence"": 0.01}}"
Finchite,Sr(UO2)2(V2O8)·5H2O,"{""Sr"": 1.0, ""U"": 2.0, ""O"": 17.0, ""V"": 2.0, ""H"": 10.0}",947.64,#FFFFFF,orthorhombic,"{""system"": ""orthorhombic"", ""scale"": [0.8, 1.0, 1.2], ""optical"": {""transparent"": 1, ""refraction"": 1.5, ""birefringence"": 0.01}}"
Finescreekite,[Pb4(OH)4](S2O3)2,"{""Pb"": 4.0, ""O"": 10.0, ""H"": 4.0, ""S"": 4.0}",1121.07,#FFFFFF,orthorhombic,"{""system"": ""orthorhombic"", ""scale"": [0.8, 1.0, 1.2], ""optical"": {""transparent"": 1, ""refraction"": 1.5, ""birefringence"": 0.01}}"
Fingerite,Cu11O2(VO4)6,"{""Cu"": 11.0, ""O"": 26.0, ""V"": 6.0}",1420.69,#00BFFF,triclinic,"{""system"": ""triclinic"", ""scale"": [0.7, 1.0, 1.3], ""optical"": {""transparent"": 0, ""refraction"": 0.0, ""birefringence"": 0.0}}"
Finnemanite,Pb5(As3+O3)3Cl,"{""Pb"": 5.0, ""As"": 3.0, ""O"": 9.0, ""Cl"": 1.0}",1440.21,#FFFFFF,hexagonal,"{""system"": ""hexagonal"", ""scale"": [1.0, 1.0, 1.6], ""optical"": {""transparent"": 1, ""refraction"": 1.5, ""birefringence"": 0.01}}"
Fischesserite,Ag3AuSe2,"{""Ag"": 3.0, ""Au"": 1.0, ""Se"": 2.0}",678.5,#FFD700,cubic,"{""system"": ""cubic"", ""scale"": [1.0, 1.0, 1.0], ""optical"": {""transparent"": 0, ""refraction"": 0.0, ""birefringence"": 0.0}}"
Fizelyite,Ag5Pb14Sb21S48,"{""Ag"": 5.0, ""Pb"": 14.0, ""Sb"": 21.0, ""S"": 48.0}",7535.99,#708090,monoclinic,"{""system"": ""monoclinic"", ""scale"": [0.7, 1.0, 1.3], ""optical"": {""transparent"": 0, ""refraction"": 0.0, ""birefringence"": 0.0}}"
Flaggite,Pb4Cu2+4Te6+2(SO4)2O11(OH)2(H2O),"{""Pb"": 4.0, ""Cu"": 4.0, ""Te"": 2.0, ""S"": 2.0, ""O"": 22.0, ""H"": 4.0}",1758.35,#FFFFFF,triclinic,"{""system"": ""triclinic"", ""scale"": [0.7, 1.0, 1.3], ""optical"": {""transparent"": 1, ""refraction"": 1.5, ""birefringence"": 0.01}}"
Flagstaffite,C10H22O3,"{""C"": 10.0, ""H"": 22.0, ""O"": 3.0}",190.28,#FFFFFF,orthorhombic,"{""system"": ""orthorhombic"", ""scale"": [0.8, 1.0, 1.2], ""optical"": {""transparent"": 1, ""refraction"": 1.5, ""birefringence"": 0.01}}"
Fleetite,Cu2RhIrSb2,"{""Cu"": 2.0, ""Rh"": 1.0, ""Ir"": 1.0, ""Sb"": 2.0}",665.75,#FFFFFF,cubic,"{""system"": ""cubic"", ""scale"": [1.0, 1.0, 1.0], ""optical"": {""transparent"": 1, ""refraction"": 1.5, ""birefringence"": 0.0}}"
Fleischerite,Pb3Ge(SO4)2(OH)6·3H2O,"{""Pb"": 3.0, ""Ge"": 1.0, ""S"": 2.0, ""O"": 17.0, ""H"": 12.0}",1042.45,#FFFFFF,hexagonal,"{""system"": ""hexagonal"", ""scale"": [1.0, 1.0, 1.6], ""optical"": {""transparent"": 1, ""refraction"": 1.5, ""birefringence"": 0.01}}"
Fleisstalite,Fe2+(SO3)·3H2O,"{""Fe"": 1.0, ""S"": 1.0, ""O"": 6.0, ""H"": 6.0}",189.96,#556B2F,orthorhombic,"{""system"": ""orthorhombic"", ""scale"": [0.8, 1.0, 1.2], ""optical"": {""transparent"": 0, ""refraction"": 0.0, ""birefringence"": 0.0}}"
Fletcherite,CuNi2S4,"{""Cu"": 1.0, ""Ni"": 2.0, ""S"": 4.0}",309.17,#A9A9A9,cubic,"{""system"": ""cubic"", ""scale"": [1.0, 1.0, 1.0], ""optical"": {""transparent"": 0, ""refraction"": 0.0, ""birefringence"": 0.0}}"
Florencite-(Ce),CeAl3(PO4)2(OH)6,"{""Ce"": 1.0, ""Al"": 3.0, ""P"": 2.0, ""O"": 14.0, ""H"": 6.0}",513.05,#FFFFFF,hexagonal,"{""system"": ""hexagonal"", ""scale"": [1.0, 1.0, 1.6], ""optical"": {""transparent"": 1, ""refraction"": 1.5, ""birefringence"": 0.01}}"
Florencite-(La),LaAl3(PO4)2(OH)6,"{""La"": 1.0, ""Al"": 3.0, ""P"": 2.0, ""O"": 14.0, ""H"": 6.0}",511.84,#FFFFFF,,"{""system"": """", ""scale"": [1.0, 1.0, 1.0], ""optical"": {""transparent"": 1, ""refraction"": 1.5, ""birefringence"": 0.01}}"
Florencite-(Nd),NdAl3(PO4)2(OH)6,"{""Nd"": 1.0, ""Al"": 3.0, ""P"": 2.0, ""O"": 14.0, ""H"": 6.0}",517.17,#FFFFFF,hexagonal,"{""system"": ""hexagonal"", ""scale"": [1.0, 1.0, 1.6], ""optical"": {""transparent"": 1, ""refraction"": 1.5, ""birefringence"": 0.01}}"
Florencite-(Sm),SmAl3(PO4)2(OH)6,"{""Sm"": 1.0, ""Al"": 3.0, ""P"": 2.0, ""O"": 14.0, ""H"": 6.0}",523.29,#FFFFFF,hexagonal,"{""system"": ""hexagonal"", ""scale"": [1.0, 1.0, 1.6], ""optical"": {""transparent"": 1, ""refraction"": 1.5, ""birefringence"": 0.01}}"
Florenskyite,FeTiP,"{""Fe"": 1.0, ""Ti"": 1.0, ""P"": 1.0}",134.69,#8B4513,orthorhombic,"{""system"": ""orthorhombic"", ""scale"": [0.8, 1.0, 1.2], ""optical"": {""transparent"": 0, ""refraction"": 0.0, ""birefringence"": 0.0}}"
Florkeite,(K3Ca2Na)[Al8Si8O32]·12H2O,"{""K"": 3.0, ""Ca"": 2.0, ""Na"": 1.0, ""Al"": 8.0, ""Si"": 8.0, ""O"": 44.0, ""H"": 24.0}",1389.2,#FFFFFF,triclinic,"{""system"": ""triclinic"", ""scale"": [0.7, 1.0, 1.3], ""optical"": {""transparent"": 1, ""refraction"": 1.5, ""birefringence"": 0.01}}"
Fluellite,Al2(PO4)F2(OH)·7H2O,"{""Al"": 2.0, ""P"": 1.0, ""O"": 12.0, ""F"": 2.0, ""H"": 15.0}",330.05,#FFFFFF,orthorhombic,"{""system"": ""orthorhombic"", ""scale"": [0.8, 1.0, 1.2], ""optical"": {""transparent"": 1, ""refraction"": 1.5, ""birefringence"": 0.01}}"
Fluoborite,Mg3(BO3)F3,"{""Mg"": 3.0, ""B"": 1.0, ""O"": 3.0, ""F"": 3.0}",188.74,#FFFFFF,hexagonal,"{""system"": ""hexagonal"", ""scale"": [1.0, 1.0, 1.6], ""optical"": {""transparent"": 1, ""refraction"": 1.5, ""birefringence"": 0.01}}"
Fluocerite-(Ce),CeF3,"{""Ce"": 1.0, ""F"": 3.0}",197.12,#FFFFFF,hexagonal,"{""system"": ""hexagonal"", ""scale"": [1.0, 1.0, 1.6], ""optical"": {""transparent"": 1, ""refraction"": 1.5, ""birefringence"": 0.01}}"
Fluocerite-(La),LaF3,"{""La"": 1.0, ""F"": 3.0}",195.91,#FFFFFF,hexagonal,"{""system"": ""hexagonal"", ""scale"": [1.0, 1.0, 1.6], ""optical"": {""transparent"": 1, ""refraction"": 1.5, ""birefringence"": 0.01}}"
Fluoralforsite,Ba5(PO4)3F,"{""Ba"": 5.0, ""P"": 3.0, ""O"": 12.0, ""F"": 1.0}",990.56,#FFFFFF,hexagonal,"{""system"": ""hexagonal"", ""scale"": [1.0, 1.0, 1.6], ""optical"": {""transparent"": 1, ""refraction"": 1.5, ""birefringence"": 0.01}}"
Fluorannite,KFe2+3(Si3Al)O10F2,"{""K"": 1.0, ""Fe"": 3.0, ""Si"": 3.0, ""Al"": 1.0, ""O"": 10.0, ""F"": 2.0}",515.9,#556B2F,monoclinic,"{""system"": ""monoclinic"", ""scale"": [0.7, 1.0, 1.3], ""optical"": {""transparent"": 0, ""refraction"": 0.0, ""birefringence"": 0.0}}"
Fluorapatite,Ca5(PO4)3F,"{""Ca"": 5.0, ""P"": 3.0, ""O"": 12.0, ""F"": 1.0}",504.31,#FFFFFF,monoclinic,"{""system"": ""monoclinic"", ""scale"": [0.7, 1.0, 1.3], ""optical"": {""transparent"": 1, ""refraction"": 1.5, ""birefringence"": 0.01}}"
Fluorapophyllite-(Cs),CsCa4(Si8O20)F(H2O)8,"{""Cs"": 1.0, ""Ca"": 4.0, ""Si"": 8.0, ""O"": 28.0, ""F"": 1.0, ""H"": 16.0}",1001.08,#FFFFFF,tetragonal,"{""system"": ""tetragonal"", ""scale"": [1.0, 1.0, 1.4], ""optical"": {""transparent"": 1, ""refraction"": 1.5, ""birefringence"": 0.01}}"
Fluorapophyllite-(K),KCa4Si8O20F·8H2O,"{""K"": 1.0, ""Ca"": 4.0, ""Si"": 8.0, ""O"": 28.0, ""F"": 1.0, ""H"": 16.0}",907.27,#FFFFFF,tetragonal,"{""system"": ""tetragonal"", ""scale"": [1.0, 1.0, 1.4], ""optical"": {""transparent"": 1, ""refraction"": 1.5, ""birefringence"": 0.01}}"
Fluorapophyllite-(Na),NaCa4Si8O20F·8H2O,"{""Na"": 1.0, ""Ca"": 4.0, ""Si"": 8.0, ""O"": 28.0, ""F"": 1.0, ""H"": 16.0}",891.16,#FFFFFF,orthorhombic,"{""system"": ""orthorhombic"", ""scale"": [0.8, 1.0, 1.2], ""optical"": {""transparent"": 1, ""refraction"": 1.5, ""birefringence"": 0.01}}"
Fluorapophyllite-(NH4),(NH4)Ca4(Si8O20)F·8H2O,"{""N"": 1.0, ""H"": 20.0, ""Ca"": 4.0, ""Si"": 8.0, ""O"": 28.0, ""F"": 1.0}",886.21,#FFFFFF,tetragonal,"{""system"": ""tetragonal"", ""scale"": [1.0, 1.0, 1.4], ""optical"": {""transparent"": 1, ""refraction"": 1.5, ""birefringence"": 0.01}}"
Fluorarrojadite-(BaFe),Na2CaBaFe2+Fe2+13Al(PO4)11(PO3OH)F2,"{""Na"": 2.0, ""Ca"": 1.0, ""Ba"": 1.0, ""Fe"": 14.0, ""Al"": 1.0, ""P"": 12.0, ""O"": 48.0, ""H"": 1.0, ""F"": 2.0}",2210.92,#556B2F,monoclinic,"{""system"": ""monoclinic"", ""scale"": [0.7, 1.0, 1.3], ""optical"": {""transparent"": 0, ""refraction"": 0.0, ""birefringence"": 0.0}}"
Fluorarrojadite-(BaNa),BaNa4CaFe13Al(PO4)11(PO3OH)F2,"{""Ba"": 1.0, ""Na"": 4.0, ""Ca"": 1.0, ""Fe"": 13.0, ""Al"": 1.0, ""P"": 12.0, ""O"": 48.0, ""H"": 1.0, ""F"": 2.0}",2201.05,#556B2F,monoclinic,"{""system"": ""monoclinic"", ""scale"": [0.7, 1.0, 1.3], ""optical"": {""transparent"": 0, ""refraction"": 0.0, ""birefringence"": 0.0}}"
Fluorbarytolamprophyllite,(BaK)Ti2Na3Ti(Si2O7)2O2F2,"{""Ba"": 1.0, ""K"": 1.0, ""Ti"": 3.0, ""Na"": 3.0, ""Si"": 4.0, ""O"": 16.0, ""F"": 2.0}",795.37,#FFFFFF,monoclinic,"{""system"": ""monoclinic"", ""scale"": [0.7, 1.0, 1.3], ""optical"": {""transparent"": 1, ""refraction"": 1.5, ""birefringence"": 0.01}}"
Fluorbritholite-(La),Ca2La3(SiO4)3F,"{""Ca"": 2.0, ""La"": 3.0, ""Si"": 3.0, ""O"": 12.0, ""F"": 1.0}",792.16,#FFFFFF,hexagonal,"{""system"": ""hexagonal"", ""scale"": [1.0, 1.0, 1.6], ""optical"": {""transparent"": 1, ""refraction"": 1.5, ""birefringence"": 0.01}}"
Fluorbritholite-(Nd),Ca2Nd3(SiO4)3F,"{""Ca"": 2.0, ""Nd"": 3.0, ""Si"": 3.0, ""O"": 12.0, ""F"": 1.0}",808.15,#FFFFFF,hexagonal,"{""system"": ""hexagonal"", ""scale"": [1.0, 1.0, 1.6], ""optical"": {""transparent"": 1, ""refraction"": 1.5, ""birefringence"": 0.01}}"
Fluor-buergerite,NaFe3+3Al6(Si6O18)(BO3)3O3F,"{""Na"": 1.0, ""Fe"": 3.0, ""Al"": 6.0, ""Si"": 6.0, ""O"": 30.0, ""B"": 3.0, ""F"": 1.0}",1052.39,#556B2F,hexagonal,"{""system"": ""hexagonal"", ""scale"": [1.0, 1.0, 1.6], ""optical"": {""transparent"": 0, ""refraction"": 0.0, ""birefringence"": 0.0}}"
Fluorcanasite,K3Na3Ca5Si12O30F4·H2O,"{""K"": 3.0, ""Na"": 3.0, ""Ca"": 5.0, ""Si"": 12.0, ""O"": 31.0, ""F"": 4.0, ""H"": 2.0}",1297.77,#FFFFFF,monoclinic,"{""system"": ""monoclinic"", ""scale"": [0.7, 1.0, 1.3], ""optical"": {""transparent"": 1, ""refraction"": 1.5, ""birefringence"": 0.01}}"
Fluorcaphite,SrCaCa3(PO4)3F,"{""Sr"": 1.0, ""Ca"": 4.0, ""P"": 3.0, ""O"": 12.0, ""F"": 1.0}",551.85,#FFFFFF,hexagonal,"{""system"": ""hexagonal"", ""scale"": [1.0, 1.0, 1.6], ""optical"": {""transparent"": 1, ""refraction"": 1.5, ""birefringence"": 0.01}}"
Fluorcarletonite,KNa4Ca4Si8O18(CO3)4F·H2O,"{""K"": 1.0, ""Na"": 4.0, ""Ca"": 4.0, ""Si"": 8.0, ""O"": 31.0, ""C"": 4.0, ""F"": 1.0, ""H"": 2.0}",1081.16,#FFFFFF,tetragonal,"{""system"": ""tetragonal"", ""scale"": [1.0, 1.0, 1.4], ""optical"": {""transparent"": 1, ""refraction"": 1.5, ""birefringence"": 0.01}}"
Fluorchegemite,Ca7(SiO4)3F2,"{""Ca"": 7.0, ""Si"": 3.0, ""O"": 12.0, ""F"": 2.0}",594.83,#FFFFFF,,"{""system"": """", ""scale"": [1.0, 1.0, 1.0], ""optical"": {""transparent"": 1, ""refraction"": 1.5, ""birefringence"": 0.01}}"
Fluor-dravite,NaMg3Al6(Si6O18)(BO3)3(OH)3F,"{""Na"": 1.0, ""Mg"": 3.0, ""Al"": 6.0, ""Si"": 6.0, ""O"": 30.0, ""B"": 3.0, ""H"": 3.0, ""F"": 1.0}",960.79,#FFFFFF,hexagonal,"{""system"": ""hexagonal"", ""scale"": [1.0, 1.0, 1.6], ""optical"": {""transparent"": 1, ""refraction"": 1.5, ""birefringence"": 0.01}}"
Fluorite,CaF2,"{""Ca"": 1.0, ""F"": 2.0}",78.08,#FFFFFF,cubic,"{""system"": ""cubic"", ""scale"": [1.0, 1.0, 1.0], ""optical"": {""transparent"": 1, ""refraction"": 1.5, ""birefringence"": 0.0}}"
Fluorkyuygenite,Ca12Al14O32[(H2O)4F2],"{""Ca"": 12.0, ""Al"": 14.0, ""O"": 36.0, ""H"": 8.0, ""F"": 2.0}",1480.74,#FFFFFF,cubic,"{""system"": ""cubic"", ""scale"": [1.0, 1.0, 1.0], ""optical"": {""transparent"": 1, ""refraction"": 1.5, ""birefringence"": 0.0}}"
Fluorlamprophyllite,(SrNa)Ti2Na3Ti(Si2O7)2O2F2,"{""Sr"": 1.0, ""Na"": 4.0, ""Ti"": 3.0, ""Si"": 4.0, ""O"": 16.0, ""F"": 2.0}",729.55,#FFFFFF,monoclinic,"{""system"": ""monoclinic"", ""scale"": [0.7, 1.0, 1.3], ""optical"": {""transparent"": 1, ""refraction"": 1.5, ""birefringence"": 0.01}}"
Fluor-liddicoatite,Ca(Li2Al)Al6(Si6O18)(BO3)3(OH)3F,"{""Ca"": 1.0, ""Li"": 2.0, ""Al"": 7.0, ""Si"": 6.0, ""O"": 30.0, ""B"": 3.0, ""H"": 3.0, ""F"": 1.0}",945.81,#FFFFFF,hexagonal,"{""system"": ""hexagonal"", ""scale"": [1.0, 1.0, 1.6], ""optical"": {""transparent"": 1, ""refraction"": 1.5, ""birefringence"": 0.01}}"
Fluoro-cannilloite,CaCa2(Mg4Al)(Si5Al3)O22F2,"{""Ca"": 3.0, ""Mg"": 4.0, ""Al"": 4.0, ""Si"": 5.0, ""O"": 22.0, ""F"": 2.0}",855.85,#FFFFFF,monoclinic,"{""system"": ""monoclinic"", ""scale"": [0.7, 1.0, 1.3], ""optical"": {""transparent"": 1, ""refraction"": 1.5, ""birefringence"": 0.01}}"
Fluorocronite,PbF2,"{""Pb"": 1.0, ""F"": 2.0}",245.2,#FFFFFF,cubic,"{""system"": ""cubic"", ""scale"": [1.0, 1.0, 1.0], ""optical"": {""transparent"": 1, ""refraction"": 1.5, ""birefringence"": 0.0}}"
Fluoro-edenite,NaCa2Mg5(Si7Al)O22F2,"{""Na"": 1.0, ""Ca"": 2.0, ""Mg"": 5.0, ""Si"": 7.0, ""Al"": 1.0, ""O"": 22.0, ""F"": 2.0}",838.31,#FFFFFF,monoclinic,"{""system"": ""monoclinic"", ""scale"": [0.7, 1.0, 1.3], ""optical"": {""transparent"": 1, ""refraction"": 1.5, ""birefringence"": 0.01}}"
Fluorokinoshitalite,BaMg3Al2Si2O10F2,"{""Ba"": 1.0, ""Mg"": 3.0, ""Al"": 2.0, ""Si"": 2.0, ""O"": 10.0, ""F"": 2.0}",518.4,#FFFFFF,monoclinic,"{""system"": ""monoclinic"", ""scale"": [0.7, 1.0, 1.3], ""optical"": {""transparent"": 1, ""refraction"": 1.5, ""birefringence"": 0.01}}"
Fluoro-leakeite,NaNa2(Mg2Al2Li)Si8O22F2,"{""Na"": 3.0, ""Mg"": 2.0, ""Al"": 2.0, ""Li"": 1.0, ""Si"": 8.0, ""O"": 22.0, ""F"": 2.0}",793.21,#FFFFFF,monoclinic,"{""system"": ""monoclinic"", ""scale"": [0.7, 1.0, 1.3], ""optical"": {""transparent"": 1, ""refraction"": 1.5, ""birefringence"": 0.01}}"
Fluoro-nyboite,NaNa2(Mg3Al2)(Si7Al)O22F2,"{""Na"": 3.0, ""Mg"": 3.0, ""Al"": 3.0, ""Si"": 7.0, ""O"": 22.0, ""F"": 2.0}",809.47,#FFFFFF,monoclinic,"{""system"": ""monoclinic"", ""scale"": [0.7, 1.0, 1.3], ""optical"": {""transparent"": 1, ""refraction"": 1.5, ""birefringence"": 0.01}}"
Fluoro-pargasite,NaCa2(Mg4Al)(Si6Al2)O22F2,"{""Na"": 1.0, ""Ca"": 2.0, ""Mg"": 4.0, ""Al"": 3.0, ""Si"": 6.0, ""O"": 22.0, ""F"": 2.0}",839.87,#FFFFFF,monoclinic,"{""system"": ""monoclinic"", ""scale"": [0.7, 1.0, 1.3], ""optical"": {""transparent"": 1, ""refraction"": 1.5, ""birefringence"": 0.01}}"
Fluoro-pedrizite,NaLi2(Mg2Al2Li)Si8O22F2,"{""Na"": 1.0, ""Li"": 3.0, ""Mg"": 2.0, ""Al"": 2.0, ""Si"": 8.0, ""O"": 22.0, ""F"": 2.0}",761.11,#FFFFFF,monoclinic,"{""system"": ""monoclinic"", ""scale"": [0.7, 1.0, 1.3], ""optical"": {""transparent"": 1, ""refraction"": 1.5, ""birefringence"": 0.01}}"
Fluorophlogopite,KMg3(Si3Al)O10F2,"{""K"": 1.0, ""Mg"": 3.0, ""Si"": 3.0, ""Al"": 1.0, ""O"": 10.0, ""F"": 2.0}",421.28,#FFFFFF,hexagonal,"{""system"": ""hexagonal"", ""scale"": [1.0, 1.0, 1.6], ""optical"": {""transparent"": 1, ""refraction"": 1.5, ""birefringence"": 0.01}}"
Fluoro-richterite,Na(NaCa)Mg5Si8O22F2,"{""Na"": 2.0, ""Ca"": 1.0, ""Mg"": 5.0, ""Si"": 8.0, ""O"": 22.0, ""F"": 2.0}",822.33,#FFFFFF,monoclinic,"{""system"": ""monoclinic"", ""scale"": [0.7, 1.0, 1.3], ""optical"": {""transparent"": 1, ""refraction"": 1.5, ""birefringence"": 0.01}}"
Fluoro-taramite,Na(NaCa)(Mg3Al2)(Si6Al2)O22F2,"{""Na"": 2.0, ""Ca"": 1.0, ""Mg"": 3.0, ""Al"": 4.0, ""Si"": 6.0, ""O"": 22.0, ""F"": 2.0}",825.45,#FFFFFF,monoclinic,"{""system"": ""monoclinic"", ""scale"": [0.7, 1.0, 1.3], ""optical"": {""transparent"": 1, ""refraction"": 1.5, ""birefringence"": 0.01}}"
Fluorotetraferriphlogopite,KMg3Fe3+Si3O10F2,"{""K"": 1.0, ""Mg"": 3.0, ""Fe"": 1.0, ""Si"": 3.0, ""O"": 10.0, ""F"": 2.0}",450.15,#556B2F,monoclinic,"{""system"": ""monoclinic"", ""scale"": [0.7, 1.0, 1.3], ""optical"": {""transparent"": 0, ""refraction"": 0.0, ""birefringence"": 0.0}}"
Fluorowardite,NaAl3(PO4)2(OH)2F2·2H2O,"{""Na"": 1.0, ""Al"": 3.0, ""P"": 2.0, ""O"": 12.0, ""H"": 6.0, ""F"": 2.0}",401.92,#FFFFFF,tetragonal,"{""system"": ""tetragonal"", ""scale"": [1.0, 1.0, 1.4], ""optical"": {""transparent"": 1, ""refraction"": 1.5, ""birefringence"": 0.01}}"
Fluorphosphohedyphane,Ca2Pb3(PO4)3F,"{""Ca"": 2.0, ""Pb"": 3.0, ""P"": 3.0, ""O"": 12.0, ""F"": 1.0}",1005.67,#FFFFFF,hexagonal,"{""system"": ""hexagonal"", ""scale"": [1.0, 1.0, 1.6], ""optical"": {""transparent"": 1, ""refraction"": 1.5, ""birefringence"": 0.01}}"
Fluorpyromorphite,Pb5(PO4)3F,"{""Pb"": 5.0, ""P"": 3.0, ""O"": 12.0, ""F"": 1.0}",1339.91,#FFFFFF,hexagonal,"{""system"": ""hexagonal"", ""scale"": [1.0, 1.0, 1.6], ""optical"": {""transparent"": 1, ""refraction"": 1.5, ""birefringence"": 0.01}}"
Fluor-schorl,NaFe2+3Al6(Si6O18)(BO3)3(OH)3F,"{""Na"": 1.0, ""Fe"": 3.0, ""Al"": 6.0, ""Si"": 6.0, ""O"": 30.0, ""B"": 3.0, ""H"": 3.0, ""F"": 1.0}",1055.41,#556B2F,hexagonal,"{""system"": ""hexagonal"", ""scale"": [1.0, 1.0, 1.6], ""optical"": {""transparent"": 0, ""refraction"": 0.0, ""birefringence"": 0.0}}"
Fluorsigaiite,Ca2Sr3(PO4)3F,"{""Ca"": 2.0, ""Sr"": 3.0, ""P"": 3.0, ""O"": 12.0, ""F"": 1.0}",646.93,#FFFFFF,hexagonal,"{""system"": ""hexagonal"", ""scale"": [1.0, 1.0, 1.6], ""optical"": {""transparent"": 1, ""refraction"": 1.5, ""birefringence"": 0.01}}"
Fluorstrophite,SrCaSr3(PO4)3F,"{""Sr"": 4.0, ""Ca"": 1.0, ""P"": 3.0, ""O"": 12.0, ""F"": 1.0}",694.47,#FFFFFF,hexagonal,"{""system"": ""hexagonal"", ""scale"": [1.0, 1.0, 1.6], ""optical"": {""transparent"": 1, ""refraction"": 1.5, ""birefringence"": 0.01}}"