name,formula,elements,density,color,crystal_system,dna
Kleberite,Fe3+Ti6O11(OH)5,"{""Fe"": 1.0, ""Ti"": 6.0, ""O"": 16.0, ""H"": 5.0}",604.11,#556B2F,monoclinic,"{""system"": ""monoclinic"", ""scale"": [0.7, 1.0, 1.3], ""optical"": {""transparent"": 0, ""refraction"": 0.0, ""birefringence"": 0.0}}"
Klyuchevskite,K3Cu3Fe3+O2(SO4)4,"{""K"": 3.0, ""Cu"": 3.0, ""Fe"": 1.0, ""O"": 18.0, ""S"": 4.0}",780.04,#556B2F,monoclinic,"{""system"": ""monoclinic"", ""scale"": [0.7, 1.0, 1.3], ""optical"": {""transparent"": 0, ""refraction"": 0.0, ""birefringence"": 0.0}}"
Knasibfite,K3Na4(SiF6)3(BF4),"{""K"": 3.0, ""Na"": 4.0, ""Si"": 3.0, ""F"": 22.0, ""B"": 1.0}",722.34,#FFFFFF,orthorhombic,"{""system"": ""orthorhombic"", ""scale"": [0.8, 1.0, 1.2], ""optical"": {""transparent"": 1, ""refraction"": 1.5, ""birefringence"": 0.01}}"
Knorringite,Mg3Cr2(SiO4)3,"{""Mg"": 3.0, ""Cr"": 2.0, ""Si"": 3.0, ""O"": 12.0}",453.2,#FFFFFF,cubic,"{""system"": ""cubic"", ""scale"": [1.0, 1.0, 1.0], ""optical"": {""transparent"": 1, ""refraction"": 1.5, ""birefringence"": 0.0}}"
Koashvite,Na6CaTiSi6O18,"{""Na"": 6.0, ""Ca"": 1.0, ""Ti"": 1.0, ""Si"": 6.0, ""O"": 18.0}",682.43,#FFFFFF,orthorhombic,"{""system"": ""orthorhombic"", ""scale"": [0.8, 1.0, 1.2], ""optical"": {""transparent"": 1, ""refraction"": 1.5, ""birefringence"": 0.01}}"
Kobokoboite,Al6(PO4)4(OH)6·11H2O,"{""Al"": 6.0, ""P"": 4.0, ""O"": 33.0, ""H"": 28.0}",841.98,#FFFFFF,triclinic,"{""system"": ""triclinic"", ""scale"": [0.7, 1.0, 1.3], ""optical"": {""transparent"": 1, ""refraction"": 1.5, ""birefringence"": 0.01}}"
Kobyashevite,Cu5(SO4)2(OH)6·4H2O,"{""Cu"": 5.0, ""S"": 2.0, ""O"": 18.0, ""H"": 14.0}",683.98,#FFFFFF,triclinic,"{""system"": ""triclinic"", ""scale"": [0.7, 1.0, 1.3], ""optical"": {""transparent"": 1, ""refraction"": 1.5, ""birefringence"": 0.01}}"
Kochkarite,PbBi4Te7,"{""Pb"": 1.0, ""Bi"": 4.0, ""Te"": 7.0}",1936.32,#D2B48C,hexagonal,"{""system"": ""hexagonal"", ""scale"": [1.0, 1.0, 1.6], ""optical"": {""transparent"": 0, ""refraction"": 0.0, ""birefringence"": 0.0}}"
Kochsandorite,CaAl2(CO3)2(OH)4·H2O,"{""Ca"": 1.0, ""Al"": 2.0, ""C"": 2.0, ""O"": 11.0, ""H"": 6.0}",300.11,#FFFFFF,orthorhombic,"{""system"": ""orthorhombic"", ""scale"": [0.8, 1.0, 1.2], ""optical"": {""transparent"": 1, ""refraction"": 1.5, ""birefringence"": 0.01}}"
Koechlinite,Bi2MoO6,"{""Bi"": 2.0, ""Mo"": 1.0, ""O"": 6.0}",609.91,#D2B48C,orthorhombic,"{""system"": ""orthorhombic"", ""scale"": [0.8, 1.0, 1.2], ""optical"": {""transparent"": 0, ""refraction"": 0.0, ""birefringence"": 0.0}}"
Koenenite,Na4Mg9Al4Cl12(OH)22,"{""Na"": 4.0, ""Mg"": 9.0, ""Al"": 4.0, ""Cl"": 12.0, ""O"": 22.0, ""H"": 22.0}",1218.25,#FFFFFF,hexagonal,"{""system"": ""hexagonal"", ""scale"": [1.0, 1.0, 1.6], ""optical"": {""transparent"": 1, ""refraction"": 1.5, ""birefringence"": 0.01}}"
Kogarkoite,Na3(SO4)F,"{""Na"": 3.0, ""S"": 1.0, ""O"": 4.0, ""F"": 1.0}",184.03,#FFFFFF,monoclinic,"{""system"": ""monoclinic"", ""scale"": [0.7, 1.0, 1.3], ""optical"": {""transparent"": 1, ""refraction"": 1.5, ""birefringence"": 0.01}}"
Kokchetavite,K(AlSi3O8),"{""K"": 1.0, ""Al"": 1.0, ""Si"": 3.0, ""O"": 8.0}",278.35,#FFFFFF,hexagonal,"{""system"": ""hexagonal"", ""scale"": [1.0, 1.0, 1.6], ""optical"": {""transparent"": 1, ""refraction"": 1.5, ""birefringence"": 0.01}}"
Kokinosite,Na2Ca2(V10O28)·24H2O,"{""Na"": 2.0, ""Ca"": 2.0, ""V"": 10.0, ""O"": 52.0, ""H"": 48.0}",1515.92,#FFFFFF,triclinic,"{""system"": ""triclinic"", ""scale"": [0.7, 1.0, 1.3], ""optical"": {""transparent"": 1, ""refraction"": 1.5, ""birefringence"": 0.01}}"
Koksharovite,CaMg2Fe3+4(VO4)6,"{""Ca"": 1.0, ""Mg"": 2.0, ""Fe"": 4.0, ""V"": 6.0, ""O"": 24.0}",1001.74,#556B2F,triclinic,"{""system"": ""triclinic"", ""scale"": [0.7, 1.0, 1.3], ""optical"": {""transparent"": 0, ""refraction"": 0.0, ""birefringence"": 0.0}}"
Koktaite,(NH4)2Ca(SO4)2·H2O,"{""N"": 2.0, ""H"": 10.0, ""Ca"": 1.0, ""S"": 2.0, ""O"": 9.0}",286.3,#FFFFFF,,"{""system"": """", ""scale"": [1.0, 1.0, 1.0], ""optical"": {""transparent"": 1, ""refraction"": 1.5, ""birefringence"": 0.01}}"
Kolarite,PbTeCl2,"{""Pb"": 1.0, ""Te"": 1.0, ""Cl"": 2.0}",405.7,#FFFFFF,orthorhombic,"{""system"": ""orthorhombic"", ""scale"": [0.8, 1.0, 1.2], ""optical"": {""transparent"": 1, ""refraction"": 1.5, ""birefringence"": 0.01}}"
Kolbeckite,Sc(PO4)·2H2O,"{""Sc"": 1.0, ""P"": 1.0, ""O"": 6.0, ""H"": 4.0}",175.96,#FFFFFF,monoclinic,"{""system"": ""monoclinic"", ""scale"": [0.7, 1.0, 1.3], ""optical"": {""transparent"": 1, ""refraction"": 1.5, ""birefringence"": 0.01}}"
Kolfanite,Ca2Fe3+3O2(AsO4)3·2H2O,"{""Ca"": 2.0, ""Fe"": 3.0, ""O"": 16.0, ""As"": 3.0, ""H"": 4.0}",732.5,#556B2F,monoclinic,"{""system"": ""monoclinic"", ""scale"": [0.7, 1.0, 1.3], ""optical"": {""transparent"": 0, ""refraction"": 0.0, ""birefringence"": 0.0}}"
Kollerite,(NH4)2Fe3+(SO3)2(OH)·H2O,"{""N"": 2.0, ""H"": 11.0, ""Fe"": 1.0, ""S"": 2.0, ""O"": 8.0}",287.08,#556B2F,orthorhombic,"{""system"": ""orthorhombic"", ""scale"": [0.8, 1.0, 1.2], ""optical"": {""transparent"": 0, ""refraction"": 0.0, ""birefringence"": 0.0}}"
Kolwezite,CuCo(CO3)(OH)2,"{""Cu"": 1.0, ""Co"": 1.0, ""C"": 1.0, ""O"": 5.0, ""H"": 2.0}",216.51,#FFFFFF,triclinic,"{""system"": ""triclinic"", ""scale"": [0.7, 1.0, 1.3], ""optical"": {""transparent"": 1, ""refraction"": 1.5, ""birefringence"": 0.01}}"
Kolymite,Cu7Hg6,"{""Cu"": 7.0, ""Hg"": 6.0}",1648.39,#00BFFF,cubic,"{""system"": ""cubic"", ""scale"": [1.0, 1.0, 1.0], ""optical"": {""transparent"": 0, ""refraction"": 0.0, ""birefringence"": 0.0}}"
Kombatite,Pb14O9(VO4)2Cl4,"{""Pb"": 14.0, ""O"": 17.0, ""V"": 2.0, ""Cl"": 4.0}",3416.48,#FFFFFF,monoclinic,"{""system"": ""monoclinic"", ""scale"": [0.7, 1.0, 1.3], ""optical"": {""transparent"": 1, ""refraction"": 1.5, ""birefringence"": 0.01}}"
Komkovite,BaZrSi3O9·3H2O,"{""Ba"": 1.0, ""Zr"": 1.0, ""Si"": 3.0, ""O"": 12.0, ""H"": 6.0}",510.87,#FFFFFF,hexagonal,"{""system"": ""hexagonal"", ""scale"": [1.0, 1.0, 1.6], ""optical"": {""transparent"": 1, ""refraction"": 1.5, ""birefringence"": 0.01}}"
Konderite,PbCu3Rh8S16,"{""Pb"": 1.0, ""Cu"": 3.0, ""Rh"": 8.0, ""S"": 16.0}",1734.09,#708090,hexagonal,"{""system"": ""hexagonal"", ""scale"": [1.0, 1.0, 1.6], ""optical"": {""transparent"": 0, ""refraction"": 0.0, ""birefringence"": 0.0}}"
Koninckite,Fe3+(PO4)·3H2O,"{""Fe"": 1.0, ""P"": 1.0, ""O"": 7.0, ""H"": 6.0}",204.87,#556B2F,tetragonal,"{""system"": ""tetragonal"", ""scale"": [1.0, 1.0, 1.4], ""optical"": {""transparent"": 0, ""refraction"": 0.0, ""birefringence"": 0.0}}"
Kononovite,NaMg(SO4)F,"{""Na"": 1.0, ""Mg"": 1.0, ""S"": 1.0, ""O"": 4.0, ""F"": 1.0}",162.36,#FFFFFF,monoclinic,"{""system"": ""monoclinic"", ""scale"": [0.7, 1.0, 1.3], ""optical"": {""transparent"": 1, ""refraction"": 1.5, ""birefringence"": 0.01}}"
Konyaite,Na2Mg(SO4)2·5H2O,"{""Na"": 2.0, ""Mg"": 1.0, ""S"": 2.0, ""O"": 13.0, ""H"": 10.0}",352.49,#FFFFFF,monoclinic,"{""system"": ""monoclinic"", ""scale"": [0.7, 1.0, 1.3], ""optical"": {""transparent"": 1, ""refraction"": 1.5, ""birefringence"": 0.01}}"
Kornelite,Fe3+2(SO4)3·7H2O (?),"{""Fe"": 2.0, ""S"": 3.0, ""O"": 19.0, ""H"": 14.0}",525.99,#556B2F,monoclinic,"{""system"": ""monoclinic"", ""scale"": [0.7, 1.0, 1.3], ""optical"": {""transparent"": 0, ""refraction"": 0.0, ""birefringence"": 0.0}}"
Korshunovskite,Mg2Cl(OH)3·4H2O,"{""Mg"": 2.0, ""Cl"": 1.0, ""O"": 7.0, ""H"": 11.0}",207.16,#FFFFFF,triclinic,"{""system"": ""triclinic"", ""scale"": [0.7, 1.0, 1.3], ""optical"": {""transparent"": 1, ""refraction"": 1.5, ""birefringence"": 0.01}}"
Koryakite,NaKMg2Al2(SO4)6,"{""Na"": 1.0, ""K"": 1.0, ""Mg"": 2.0, ""Al"": 2.0, ""S"": 6.0, ""O"": 24.0}",741.03,#FFFFFF,hexagonal,"{""system"": ""hexagonal"", ""scale"": [1.0, 1.0, 1.6], ""optical"": {""transparent"": 1, ""refraction"": 1.5, ""birefringence"": 0.01}}"
Kosmochlor,NaCr3+Si2O6,"{""Na"": 1.0, ""Cr"": 1.0, ""Si"": 2.0, ""O"": 6.0}",227.17,#FFFFFF,monoclinic,"{""system"": ""monoclinic"", ""scale"": [0.7, 1.0, 1.3], ""optical"": {""transparent"": 1, ""refraction"": 1.5, ""birefringence"": 0.01}}"
Kosnarite,KZr2(PO4)3,"{""K"": 1.0, ""Zr"": 2.0, ""P"": 3.0, ""O"": 12.0}",506.45,#FFFFFF,hexagonal,"{""system"": ""hexagonal"", ""scale"": [1.0, 1.0, 1.6], ""optical"": {""transparent"": 1, ""refraction"": 1.5, ""birefringence"": 0.01}}"
Kostovite,AuCuTe4,"{""Au"": 1.0, ""Cu"": 1.0, ""Te"": 4.0}",770.92,#00BFFF,,"{""system"": """", ""scale"": [1.0, 1.0, 1.0], ""optical"": {""transparent"": 0, ""refraction"": 0.0, ""birefringence"": 0.0}}"
Kostylevite,K2ZrSi3O9·H2O,"{""K"": 2.0, ""Zr"": 1.0, ""Si"": 3.0, ""O"": 10.0, ""H"": 2.0}",415.71,#FFFFFF,monoclinic,"{""system"": ""monoclinic"", ""scale"": [0.7, 1.0, 1.3], ""optical"": {""transparent"": 1, ""refraction"": 1.5, ""birefringence"": 0.01}}"
Kotoite,Mg3(BO3)2,"{""Mg"": 3.0, ""B"": 2.0, ""O"": 6.0}",190.55,#FFFFFF,orthorhombic,"{""system"": ""orthorhombic"", ""scale"": [0.8, 1.0, 1.2], ""optical"": {""transparent"": 1, ""refraction"": 1.5, ""birefringence"": 0.01}}"
Kottenheimite,Ca3Si(SO4)2(OH)6·12H2O,"{""Ca"": 3.0, ""Si"": 1.0, ""S"": 2.0, ""O"": 26.0, ""H"": 30.0}",658.69,#FFFFFF,hexagonal,"{""system"": ""hexagonal"", ""scale"": [1.0, 1.0, 1.6], ""optical"": {""transparent"": 1, ""refraction"": 1.5, ""birefringence"": 0.01}}"
Koutekite,Cu5As2,"{""Cu"": 5.0, ""As"": 2.0}",467.59,#00BFFF,orthorhombic,"{""system"": ""orthorhombic"", ""scale"": [0.8, 1.0, 1.2], ""optical"": {""transparent"": 0, ""refraction"": 0.0, ""birefringence"": 0.0}}"
Kovdorskite,Mg2(PO4)(OH)·3H2O,"{""Mg"": 2.0, ""P"": 1.0, ""O"": 8.0, ""H"": 7.0}",214.65,#FFFFFF,monoclinic,"{""system"": ""monoclinic"", ""scale"": [0.7, 1.0, 1.3], ""optical"": {""transparent"": 1, ""refraction"": 1.5, ""birefringence"": 0.01}}"
Kozoite-(La),La(CO3)(OH),"{""La"": 1.0, ""C"": 1.0, ""O"": 4.0, ""H"": 1.0}",215.93,#FFFFFF,orthorhombic,"{""system"": ""orthorhombic"", ""scale"": [0.8, 1.0, 1.2], ""optical"": {""transparent"": 1, ""refraction"": 1.5, ""birefringence"": 0.01}}"
Kozoite-(Nd),Nd(CO3)(OH),"{""Nd"": 1.0, ""C"": 1.0, ""O"": 4.0, ""H"": 1.0}",221.26,#FFFFFF,orthorhombic,"{""system"": ""orthorhombic"", ""scale"": [0.8, 1.0, 1.2], ""optical"": {""transparent"": 1, ""refraction"": 1.5, ""birefringence"": 0.01}}"
Kozyrevskite,Cu4O(AsO4)2,"{""Cu"": 4.0, ""O"": 9.0, ""As"": 2.0}",548.04,#00BFFF,orthorhombic,"{""system"": ""orthorhombic"", ""scale"": [0.8, 1.0, 1.2], ""optical"": {""transparent"": 0, ""refraction"": 0.0, ""birefringence"": 0.0}}"
Kralikite,BaCl2·2H2O,"{""Ba"": 1.0, ""Cl"": 2.0, ""H"": 4.0, ""O"": 2.0}",244.26,#FFFFFF,monoclinic,"{""system"": ""monoclinic"", ""scale"": [0.7, 1.0, 1.3], ""optical"": {""transparent"": 1, ""refraction"": 1.5, ""birefringence"": 0.01}}"
Krasheninnikovite,KNa2CaMg(SO4)3F,"{""K"": 1.0, ""Na"": 2.0, ""Ca"": 1.0, ""Mg"": 1.0, ""S"": 3.0, ""O"": 12.0, ""F"": 1.0}",456.65,#FFFFFF,hexagonal,"{""system"": ""hexagonal"", ""scale"": [1.0, 1.0, 1.6], ""optical"": {""transparent"": 1, ""refraction"": 1.5, ""birefringence"": 0.01}}"
Krasnoshteinite,Al8[B2O4(OH)2](OH)16Cl4·7H2O,"{""Al"": 8.0, ""B"": 2.0, ""O"": 29.0, ""H"": 32.0, ""Cl"": 4.0}",875.52,#FFFFFF,monoclinic,"{""system"": ""monoclinic"", ""scale"": [0.7, 1.0, 1.3], ""optical"": {""transparent"": 1, ""refraction"": 1.5, ""birefringence"": 0.01}}"
Kratochvilite,C13H10,"{""C"": 13.0, ""H"": 10.0}",166.21,#FFFFFF,orthorhombic,"{""system"": ""orthorhombic"", ""scale"": [0.8, 1.0, 1.2], ""optical"": {""transparent"": 1, ""refraction"": 1.5, ""birefringence"": 0.01}}"
Krausite,KFe3+(SO4)2·H2O,"{""K"": 1.0, ""Fe"": 1.0, ""S"": 2.0, ""O"": 9.0, ""H"": 2.0}",305.09,#556B2F,monoclinic,"{""system"": ""monoclinic"", ""scale"": [0.7, 1.0, 1.3], ""optical"": {""transparent"": 0, ""refraction"": 0.0, ""birefringence"": 0.0}}"
Krauskopfite,BaSi2O5·3H2O,"{""Ba"": 1.0, ""Si"": 2.0, ""O"": 8.0, ""H"": 6.0}",327.56,#FFFFFF,monoclinic,"{""system"": ""monoclinic"", ""scale"": [0.7, 1.0, 1.3], ""optical"": {""transparent"": 1, ""refraction"": 1.5, ""birefringence"": 0.01}}"
Kravtsovite,PdAg2S,"{""Pd"": 1.0, ""Ag"": 2.0, ""S"": 1.0}",354.22,#A9A9A9,orthorhombic,"{""system"": ""orthorhombic"", ""scale"": [0.8, 1.0, 1.2], ""optical"": {""transparent"": 0, ""refraction"": 0.0, ""birefringence"": 0.0}}"
Kreiterite,CsLi2Fe3+Si4O10F2,"{""Cs"": 1.0, ""Li"": 2.0, ""Fe"": 1.0, ""Si"": 4.0, ""O"": 10.0, ""F"": 2.0}",513.0,#556B2F,monoclinic,"{""system"": ""monoclinic"", ""scale"": [0.7, 1.0, 1.3], ""optical"": {""transparent"": 0, ""refraction"": 0.0, ""birefringence"": 0.0}}"
Kremersite,(NH4)2Fe3+Cl5·H2O,"{""N"": 2.0, ""H"": 10.0, ""Fe"": 1.0, ""Cl"": 5.0, ""O"": 1.0}",287.2,#556B2F,orthorhombic,"{""system"": ""orthorhombic"", ""scale"": [0.8, 1.0, 1.2], ""optical"": {""transparent"": 0, ""refraction"": 0.0, ""birefringence"": 0.0}}"
Krennerite,Au3AgTe8,"{""Au"": 3.0, ""Ag"": 1.0, ""Te"": 8.0}",1719.58,#FFD700,orthorhombic,"{""system"": ""orthorhombic"", ""scale"": [0.8, 1.0, 1.2], ""optical"": {""transparent"": 0, ""refraction"": 0.0, ""birefringence"": 0.0}}"
Kribergite,Al5(PO4)3(SO4)(OH)4·4H2O,"{""Al"": 5.0, ""P"": 3.0, ""O"": 24.0, ""S"": 1.0, ""H"": 12.0}",655.97,#FFFFFF,,"{""system"": """", ""scale"": [1.0, 1.0, 1.0], ""optical"": {""transparent"": 1, ""refraction"": 1.5, ""birefringence"": 0.01}}"
Krieselite,Al2(GeO4)F2,"{""Al"": 2.0, ""Ge"": 1.0, ""O"": 4.0, ""F"": 2.0}",228.59,#FFFFFF,orthorhombic,"{""system"": ""orthorhombic"", ""scale"": [0.8, 1.0, 1.2], ""optical"": {""transparent"": 1, ""refraction"": 1.5, ""birefringence"": 0.01}}"
Krinovite,Na4[Mg8Cr3+4]O4[Si12O36],"{""Na"": 4.0, ""Mg"": 8.0, ""Cr"": 4.0, ""O"": 40.0, ""Si"": 12.0}",1471.52,#FFFFFF,triclinic,"{""system"": ""triclinic"", ""scale"": [0.7, 1.0, 1.3], ""optical"": {""transparent"": 1, ""refraction"": 1.5, ""birefringence"": 0.01}}"
Kristjanite,KNa2H(SO4)2,"{""K"": 1.0, ""Na"": 2.0, ""H"": 1.0, ""S"": 2.0, ""O"": 8.0}",278.21,#FFFFFF,monoclinic,"{""system"": ""monoclinic"", ""scale"": [0.7, 1.0, 1.3], ""optical"": {""transparent"": 1, ""refraction"": 1.5, ""birefringence"": 0.01}}"
Krivovichevite,Pb3Al(OH)6(SO4)(OH),"{""Pb"": 3.0, ""Al"": 1.0, ""O"": 11.0, ""H"": 7.0, ""S"": 1.0}",863.7,#FFFFFF,hexagonal,"{""system"": ""hexagonal"", ""scale"": [1.0, 1.0, 1.6], ""optical"": {""transparent"": 1, ""refraction"": 1.5, ""birefringence"": 0.01}}"
Krohnkite,Na2Cu(SO4)2·2H2O,"{""Na"": 2.0, ""Cu"": 1.0, ""S"": 2.0, ""O"": 10.0, ""H"": 4.0}",337.68,#FFFFFF,monoclinic,"{""system"": ""monoclinic"", ""scale"": [0.7, 1.0, 1.3], ""optical"": {""transparent"": 1, ""refraction"": 1.5, ""birefringence"": 0.01}}"
Krotite,CaAl2O4,"{""Ca"": 1.0, ""Al"": 2.0, ""O"": 4.0}",158.04,#FFFFFF,monoclinic,"{""system"": ""monoclinic"", ""scale"": [0.7, 1.0, 1.3], ""optical"": {""transparent"": 1, ""refraction"": 1.5, ""birefringence"": 0.01}}"
Kruijenite,Ca4Al4(SO4)F2(OH)16·2H2O,"{""Ca"": 4.0, ""Al"": 4.0, ""S"": 1.0, ""O"": 22.0, ""F"": 2.0, ""H"": 20.0}",710.46,#FFFFFF,tetragonal,"{""system"": ""tetragonal"", ""scale"": [1.0, 1.0, 1.4], ""optical"": {""transparent"": 1, ""refraction"": 1.5, ""birefringence"": 0.01}}"
Krupickaite,Cu6[AsO3(OH)]6·8H2O,"{""Cu"": 6.0, ""As"": 6.0, ""O"": 32.0, ""H"": 22.0}",1365.0,#FFFFFF,monoclinic,"{""system"": ""monoclinic"", ""scale"": [0.7, 1.0, 1.3], ""optical"": {""transparent"": 1, ""refraction"": 1.5, ""birefringence"": 0.01}}"
Krupkaite,PbCuBi3S6,"{""Pb"": 1.0, ""Cu"": 1.0, ""Bi"": 3.0, ""S"": 6.0}",1090.05,#708090,orthorhombic,"{""system"": ""orthorhombic"", ""scale"": [0.8, 1.0, 1.2], ""optical"": {""transparent"": 0, ""refraction"": 0.0, ""birefringence"": 0.0}}"
Krutaite,CuSe2,"{""Cu"": 1.0, ""Se"": 2.0}",221.47,#00BFFF,cubic,"{""system"": ""cubic"", ""scale"": [1.0, 1.0, 1.0], ""optical"": {""transparent"": 0, ""refraction"": 0.0, ""birefringence"": 0.0}}"
Krutovite,NiAs2,"{""Ni"": 1.0, ""As"": 2.0}",208.53,#7FFF00,cubic,"{""system"": ""cubic"", ""scale"": [1.0, 1.0, 1.0], ""optical"": {""transparent"": 0, ""refraction"": 0.0, ""birefringence"": 0.0}}"
Kudryavtsevaite,Na3MgFe3+Ti4O12,"{""Na"": 3.0, ""Mg"": 1.0, ""Fe"": 1.0, ""Ti"": 4.0, ""O"": 12.0}",532.61,#556B2F,orthorhombic,"{""system"": ""orthorhombic"", ""scale"": [0.8, 1.0, 1.2], ""optical"": {""transparent"": 0, ""refraction"": 0.0, ""birefringence"": 0.0}}"
Kufahrite,PtPb,"{""Pt"": 1.0, ""Pb"": 1.0}",402.28,#FFFFFF,hexagonal,"{""system"": ""hexagonal"", ""scale"": [1.0, 1.0, 1.6], ""optical"": {""transparent"": 1, ""refraction"": 1.5, ""birefringence"": 0.01}}"
Kukharenkoite-(Ce),Ba2Ce(CO3)3F,"{""Ba"": 2.0, ""Ce"": 1.0, ""C"": 3.0, ""O"": 9.0, ""F"": 1.0}",613.81,#FFFFFF,monoclinic,"{""system"": ""monoclinic"", ""scale"": [0.7, 1.0, 1.3], ""optical"": {""transparent"": 1, ""refraction"": 1.5, ""birefringence"": 0.01}}"
Kukharenkoite-(La),Ba2La(CO3)3F,"{""Ba"": 2.0, ""La"": 1.0, ""C"": 3.0, ""O"": 9.0, ""F"": 1.0}",612.6,#FFFFFF,monoclinic,"{""system"": ""monoclinic"", ""scale"": [0.7, 1.0, 1.3], ""optical"": {""transparent"": 1, ""refraction"": 1.5, ""birefringence"": 0.01}}"
Kulanite,BaFe2+2Al2(PO4)3(OH)3,"{""Ba"": 1.0, ""Fe"": 2.0, ""Al"": 2.0, ""P"": 3.0, ""O"": 15.0, ""H"": 3.0}",638.92,#556B2F,monoclinic,"{""system"": ""monoclinic"", ""scale"": [0.7, 1.0, 1.3], ""optical"": {""transparent"": 0, ""refraction"": 0.0, ""birefringence"": 0.0}}"
Kuliginite,Fe3Mg(OH)6Cl2,"{""Fe"": 3.0, ""Mg"": 1.0, ""O"": 6.0, ""H"": 6.0, ""Cl"": 2.0}",364.81,#556B2F,hexagonal,"{""system"": ""hexagonal"", ""scale"": [1.0, 1.0, 1.6], ""optical"": {""transparent"": 0, ""refraction"": 0.0, ""birefringence"": 0.0}}"
Kuliokite-(Y),Y4Al(SiO4)2(OH)2F5,"{""Y"": 4.0, ""Al"": 1.0, ""Si"": 2.0, ""O"": 10.0, ""H"": 2.0, ""F"": 5.0}",695.82,#FFFFFF,triclinic,"{""system"": ""triclinic"", ""scale"": [0.7, 1.0, 1.3], ""optical"": {""transparent"": 1, ""refraction"": 1.5, ""birefringence"": 0.01}}"
Kullerudite,NiSe2,"{""Ni"": 1.0, ""Se"": 2.0}",216.61,#7FFF00,orthorhombic,"{""system"": ""orthorhombic"", ""scale"": [0.8, 1.0, 1.2], ""optical"": {""transparent"": 0, ""refraction"": 0.0, ""birefringence"": 0.0}}"
Kumdykolite,Na(AlSi3O8),"{""Na"": 1.0, ""Al"": 1.0, ""Si"": 3.0, ""O"": 8.0}",262.24,#FFFFFF,orthorhombic,"{""system"": ""orthorhombic"", ""scale"": [0.8, 1.0, 1.2], ""optical"": {""transparent"": 1, ""refraction"": 1.5, ""birefringence"": 0.01}}"
Kumtyubeite,Ca5(SiO4)2F2,"{""Ca"": 5.0, ""Si"": 2.0, ""O"": 8.0, ""F"": 2.0}",422.58,#FFFFFF,monoclinic,"{""system"": ""monoclinic"", ""scale"": [0.7, 1.0, 1.3], ""optical"": {""transparent"": 1, ""refraction"": 1.5, ""birefringence"": 0.01}}"
Kunatite,CuFe3+2(PO4)2(OH)2·4H2O,"{""Cu"": 1.0, ""Fe"": 2.0, ""P"": 2.0, ""O"": 14.0, ""H"": 10.0}",471.27,#556B2F,monoclinic,"{""system"": ""monoclinic"", ""scale"": [0.7, 1.0, 1.3], ""optical"": {""transparent"": 0, ""refraction"": 0.0, ""birefringence"": 0.0}}"
Kuratite,Ca2(Fe2+5Ti)O2[Si4Al2O18],"{""Ca"": 2.0, ""Fe"": 5.0, ""Ti"": 1.0, ""O"": 20.0, ""Si"": 4.0, ""Al"": 2.0}",893.6,#556B2F,triclinic,"{""system"": ""triclinic"", ""scale"": [0.7, 1.0, 1.3], ""optical"": {""transparent"": 0, ""refraction"": 0.0, ""birefringence"": 0.0}}"
Kurchatovite,CaMgB2O5,"{""Ca"": 1.0, ""Mg"": 1.0, ""B"": 2.0, ""O"": 5.0}",166.01,#FFFFFF,orthorhombic,"{""system"": ""orthorhombic"", ""scale"": [0.8, 1.0, 1.2], ""optical"": {""transparent"": 1, ""refraction"": 1.5, ""birefringence"": 0.01}}"
Kurgantaite,CaSrB5O9Cl·H2O,"{""Ca"": 1.0, ""Sr"": 1.0, ""B"": 5.0, ""O"": 10.0, ""Cl"": 1.0, ""H"": 2.0}",379.22,#FFFFFF,triclinic,"{""system"": ""triclinic"", ""scale"": [0.7, 1.0, 1.3], ""optical"": {""transparent"": 1, ""refraction"": 1.5, ""birefringence"": 0.01}}"
Kurilite,Ag8Te3Se,"{""Ag"": 8.0, ""Te"": 3.0, ""Se"": 1.0}",1324.72,#C0C0C0,hexagonal,"{""system"": ""hexagonal"", ""scale"": [1.0, 1.0, 1.6], ""optical"": {""transparent"": 0, ""refraction"": 0.0, ""birefringence"": 0.0}}"
Kurnakovite,MgB3O3(OH)5·5H2O,"{""Mg"": 1.0, ""B"": 3.0, ""O"": 13.0, ""H"": 15.0}",279.86,#FFFFFF,triclinic,"{""system"": ""triclinic"", ""scale"": [0.7, 1.0, 1.3], ""optical"": {""transparent"": 1, ""refraction"": 1.5, ""birefringence"": 0.01}}"