name,formula,elements,density,color,crystal,pm_ids,gacha_weight
Uralolite,Ca2Be4(PO4)3(OH)3·5H2O,"{""Ca"": 2.0, ""Be"": 4.0, ""P"": 3.0, ""O"": 20.0, ""H"": 13.0}",542.2108,#FFFFFF,monoclinic,"{34,47}",2562.0
Uramarsite,(NH4)(UO2)(AsO4)·3H2O,"{""N"": 1.0, ""H"": 10.0, ""U"": 1.0, ""O"": 9.0, ""As"": 1.0}",481.03,#FFFFFF,triclinic,{47},1998.0
Uramphite,(NH4)(UO2)(PO4)·3H2O,"{""N"": 1.0, ""H"": 10.0, ""U"": 1.0, ""O"": 9.0, ""P"": 1.0}",437.082,#FFFFFF,triclinic,"{47,50}",2271.0
Urancalcarite,Ca(UO2)3(CO3)(OH)6·3H2O,"{""Ca"": 1.0, ""U"": 3.0, ""O"": 18.0, ""C"": 1.0, ""H"": 12.0}",1066.257,#FFFFFF,orthorhombic,{47},1998.0
Uraninite,UO2,"{""U"": 1.0, ""O"": 2.0}",270.028,#ADFF2F,cubic,"{26,34,35,49,50,53,54}",2241.0
Uranocircite,Ba(UO2)2(PO4)2·10H2O,"{""Ba"": 1.0, ""U"": 2.0, ""O"": 22.0, ""P"": 2.0, ""H"": 20.0}",1047.476,#FFFFFF,monoclinic,{47},1998.0
Uranoclite,(UO2)2(OH)2Cl2(H2O)4,"{""U"": 2.0, ""O"": 10.0, ""H"": 10.0, ""Cl"": 2.0}",717.03,#FFFFFF,monoclinic,{47},1998.0
Uranophane,Ca(UO2)2(SiO3OH)2·5H2O,"{""Ca"": 1.0, ""U"": 2.0, ""O"": 17.0, ""Si"": 2.0, ""H"": 12.0}",856.387,#FFFFFF,monoclinic,"{47,55,57}",2311.0
Uranopilite,(UO2)6(SO4)O2(OH)6·14H2O,"{""U"": 6.0, ""O"": 38.0, ""S"": 1.0, ""H"": 34.0}",2102.474,#FFFFFF,triclinic,"{47,55}",2262.0
Uranopolycrase,UTi2O6,"{""U"": 1.0, ""Ti"": 2.0, ""O"": 6.0}",429.758,#ADFF2F,orthorhombic,"{26,34}",814.0
Uranosilite,(UO2)Si7O15,"{""U"": 1.0, ""O"": 17.0, ""Si"": 7.0}",706.608,#ADFF2F,orthorhombic,{47},1998.0
Uranosphaerite,Bi(UO2)O2(OH),"{""Bi"": 1.0, ""U"": 1.0, ""O"": 5.0, ""H"": 1.0}",528.013,#FFFFFF,monoclinic,{47},1998.0
Uranospinite,Ca(UO2)2(AsO4)2·10H2O,"{""Ca"": 1.0, ""U"": 2.0, ""O"": 22.0, ""As"": 2.0, ""H"": 20.0}",1038.12,#FFFFFF,unknown,{47},1998.0
Uranotungstite,Ba(UO2)2W2O8(OH)2·H2O,"{""Ba"": 1.0, ""U"": 2.0, ""O"": 15.0, ""W"": 2.0, ""H"": 4.0}",1225.087,#FFFFFF,orthorhombic,{47},1998.0
Urea,CO(NH2)2,"{""C"": 1.0, ""O"": 1.0, ""N"": 2.0, ""H"": 4.0}",60.056,#FFFFFF,tetragonal,"{49,52}",149.0
Uricite,C5H4N4O3,"{""C"": 5.0, ""H"": 4.0, ""N"": 4.0, ""O"": 3.0}",168.112,#FFFFFF,monoclinic,"{49,52}",149.0
Uroxite,[(UO2)2(C2O4)(OH)2(H2O)2]·H2O,"{""U"": 2.0, ""O"": 13.0, ""C"": 2.0, ""H"": 8.0}",716.133,#FFFFFF,monoclinic,"{53,55}",381.0
Urusovite,CuAlO(AsO4),"{""Cu"": 1.0, ""Al"": 1.0, ""O"": 5.0, ""As"": 1.0}",245.445,#FFFFFF,monoclinic,{45},424.0
Ushkovite,MgFe3+2(PO4)2(OH)2·8H2O,"{""Mg"": 1.0, ""Fe"": 2.0, ""P"": 2.0, ""O"": 18.0, ""H"": 18.0}",504.069,#556B2F,triclinic,{47},1998.0
Usovite,Ba2CaMgAl2F14,"{""Ba"": 2.0, ""Ca"": 1.0, ""Mg"": 1.0, ""Al"": 2.0, ""F"": 14.0}",658.979,#FFFFFF,monoclinic,"{23,45}",822.0
Ussingite,Na2AlSi3O8(OH),"{""Na"": 2.0, ""Al"": 1.0, ""Si"": 3.0, ""O"": 9.0, ""H"": 1.0}",302.216,#FFFFFF,triclinic,"{9,35}",853.0
Usturite,Ca3(SbZr)(FeO4)3,"{""Ca"": 3.0, ""Sb"": 1.0, ""Zr"": 1.0, ""Fe"": 3.0, ""O"": 12.0}",692.741,#556B2F,cubic,{31},356.0
Uvanite,(UO2)2V5+6O17·15H2O (?),"{""U"": 2.0, ""O"": 36.0, ""V"": 6.0, ""H"": 30.0}",1387.916,#FFFFFF,unknown,{47},1998.0
Uvarovite,Ca3Cr2(SiO4)3,"{""Ca"": 3.0, ""Cr"": 2.0, ""Si"": 3.0, ""O"": 12.0}",500.469,#FFFFFF,orthorhombic,"{13,31,38,40}",850.0
Uvite,CaMg3(Al5Mg)(Si6O18)(BO3)3(OH)3(OH),"{""Ca"": 1.0, ""Mg"": 4.0, ""Al"": 5.0, ""Si"": 6.0, ""O"": 31.0, ""B"": 3.0, ""H"": 4.0}",973.149,#FFFFFF,hexagonal,"{19,23,26,34,40}",1674.0
Uytenbogaardtite,Ag3AuS2,"{""Ag"": 3.0, ""Au"": 1.0, ""S"": 2.0}",584.7,#A9A9A9,cubic,{33},797.0
Uzonite,As4S5,"{""As"": 4.0, ""S"": 5.0}",459.988,#FFD700,monoclinic,"{33,45}",1221.0
Vaesite,NiS2,"{""Ni"": 1.0, ""S"": 2.0}",122.813,#A9A9A9,cubic,{12},129.0
Vajdakite,(Mo6+O2)2As3+2O5·3H2O,"{""Mo"": 2.0, ""O"": 12.0, ""As"": 2.0, ""H"": 6.0}",539.78,#FFFFFF,monoclinic,{47},1998.0
Vakhrushevaite,Mg5Cr(AlSi3O10)(OH)8,"{""Mg"": 5.0, ""Cr"": 1.0, ""Al"": 1.0, ""Si"": 3.0, ""O"": 18.0, ""H"": 8.0}",580.804,#FFFFFF,triclinic,{},1.0
Valentinite,Sb2O3,"{""Sb"": 2.0, ""O"": 3.0}",291.517,#A9A9A9,orthorhombic,"{47,55,56}",2405.0
Valleyite,Ca4Fe6O13,"{""Ca"": 4.0, ""Fe"": 6.0, ""O"": 13.0}",703.369,#8B4513,cubic,"{8,9}",220.0
Vanackerite,Pb4Cd(AsO4)3Cl,"{""Pb"": 4.0, ""Cd"": 1.0, ""As"": 3.0, ""O"": 12.0, ""Cl"": 1.0}",1393.414,#FFFFFF,hexagonal,{47},1998.0
Vanadinite,Pb5(VO4)3Cl,"{""Pb"": 5.0, ""V"": 3.0, ""O"": 12.0, ""Cl"": 1.0}",1416.264,#FFFFFF,hexagonal,{47},1998.0
Vanadio-oxy-chromium-dravite,NaV3(Cr4Mg2)(Si6O18)(BO3)3(OH)3O,"{""Na"": 1.0, ""V"": 3.0, ""Cr"": 4.0, ""Mg"": 2.0, ""Si"": 6.0, ""O"": 31.0, ""B"": 3.0, ""H"": 3.0}",1132.343,#FFFFFF,hexagonal,"{23,31}",754.0
Vanadio-oxy-dravite,NaV3(Al4Mg2)(Si6O18)(BO3)3(OH)3O,"{""Na"": 1.0, ""V"": 3.0, ""Al"": 4.0, ""Mg"": 2.0, ""Si"": 6.0, ""O"": 31.0, ""B"": 3.0, ""H"": 3.0}",1032.287,#FFFFFF,hexagonal,"{23,31}",754.0
Vanadio-pargasite,NaCa2(Mg4V)(Si6Al2)O22(OH)2,"{""Na"": 1.0, ""Ca"": 2.0, ""Mg"": 4.0, ""V"": 1.0, ""Si"": 6.0, ""Al"": 2.0, ""O"": 24.0, ""H"": 2.0}",859.774,#FFFFFF,monoclinic,{47},1998.0
Vanadium,V,"{""V"": 1.0}",50.942,#FFFFFF,cubic,"{33,45,51,56}",1492.0
Vanadoallanite-(La),CaLa3+V3+AlFe2+(Si2O7)(SiO4)O(OH),"{""Ca"": 1.0, ""La"": 1.0, ""V"": 1.0, ""Al"": 1.0, ""Fe"": 1.0, ""Si"": 3.0, ""O"": 13.0, ""H"": 1.0}",606.007,#556B2F,monoclinic,{32},412.0
Vanadomalayaite,CaVO(SiO4),"{""Ca"": 1.0, ""V"": 1.0, ""O"": 5.0, ""Si"": 1.0}",199.1,#FFFFFF,monoclinic,{32},412.0
Vanalite,NaAl8V10O38·30H2O,"{""Na"": 1.0, ""Al"": 8.0, ""V"": 10.0, ""O"": 68.0, ""H"": 60.0}",1896.678,#FFFFFF,monoclinic,{47},1998.0
Vandenbrandeite,Cu(UO2)(OH)4,"{""Cu"": 1.0, ""U"": 1.0, ""O"": 6.0, ""H"": 4.0}",401.602,#FFFFFF,triclinic,{47},1998.0
Vandermeerscheite,K2[(UO2)2V2O8]·2H2O,"{""K"": 2.0, ""U"": 2.0, ""O"": 14.0, ""V"": 2.0, ""H"": 4.0}",884.158,#FFFFFF,monoclinic,{47},1998.0
Vanmeersscheite,U(UO2)3(PO4)2(OH)6·4H2O,"{""U"": 4.0, ""O"": 24.0, ""P"": 2.0, ""H"": 14.0}",1412.156,#FFFFFF,orthorhombic,{47},1998.0
Vanoxite,V6O13·8H2O (?),"{""V"": 6.0, ""O"": 21.0, ""H"": 16.0}",657.759,#FFFFFF,unknown,"{47,53}",2115.0
Vanpeltite,(Mo2O5)(S4+O3)·4H2O,"{""Mo"": 2.0, ""O"": 12.0, ""S"": 1.0, ""H"": 8.0}",424.012,#FFFFFF,monoclinic,{},1.0
Vantasselite,Al4(PO4)3(OH)3·9H2O,"{""Al"": 4.0, ""P"": 3.0, ""O"": 24.0, ""H"": 21.0}",605.994,#FFFFFF,orthorhombic,{47},1998.0
Vanthoffite,Na6Mg(SO4)4,"{""Na"": 6.0, ""Mg"": 1.0, ""S"": 4.0, ""O"": 16.0}",546.469,#FFFFFF,monoclinic,"{25,45}",634.0
Vapnikite,Ca2CaUO6,"{""Ca"": 3.0, ""U"": 1.0, ""O"": 6.0}",454.258,#ADFF2F,monoclinic,{51},128.0
Variscite,Al(PO4)·2H2O,"{""Al"": 1.0, ""P"": 1.0, ""O"": 6.0, ""H"": 4.0}",157.982,#FFFFFF,orthorhombic,"{21,34,47,52}",2713.0
Vashegyite,Al11(PO4)9(OH)6·38H2O,"{""Al"": 11.0, ""P"": 9.0, ""O"": 80.0, ""H"": 82.0}",1938.144,#FFFFFF,orthorhombic,"{22,47}",2245.0
Vasilseverginite,Cu9O4(AsO4)2(SO4)2,"{""Cu"": 9.0, ""O"": 20.0, ""As"": 2.0, ""S"": 2.0}",1105.858,#FFFFFF,monoclinic,{45},424.0
Vasilyevite,(Hg2)2+10O6I3Br2Cl(CO3),"{""Hg"": 20.0, ""O"": 9.0, ""I"": 3.0, ""Br"": 2.0, ""Cl"": 1.0, ""C"": 1.0}",4743.76,#FFFFFF,triclinic,{47},1998.0
Vastmanlandite-(Ce),Ce3CaMg2Al2Si5O19(OH)2F,"{""Ce"": 3.0, ""Ca"": 1.0, ""Mg"": 2.0, ""Al"": 2.0, ""Si"": 5.0, ""O"": 21.0, ""H"": 2.0, ""F"": 1.0}",1060.43,#FFFFFF,monoclinic,"{32,34}",976.0
Vaterite,Ca(CO3),"{""Ca"": 1.0, ""C"": 1.0, ""O"": 3.0}",100.086,#FFFFFF,triclinic,"{23,40,49,51}",922.0
Vaughanite,TlHgSb4S7,"{""Tl"": 1.0, ""Hg"": 1.0, ""Sb"": 4.0, ""S"": 7.0}",1116.43,#A9A9A9,triclinic,{33},797.0
Vauquelinite,CuPb2(CrO4)(PO4)(OH),"{""Cu"": 1.0, ""Pb"": 2.0, ""Cr"": 1.0, ""O"": 9.0, ""P"": 1.0, ""H"": 1.0}",705.915,#FFFFFF,monoclinic,{47},1998.0
Vauxite,Fe2+Al2(PO4)2(OH)2·6H2O,"{""Fe"": 1.0, ""Al"": 2.0, ""P"": 2.0, ""O"": 16.0, ""H"": 14.0}",441.853,#556B2F,triclinic,{47},1998.0
Vavrinite,Ni2SbTe2,"{""Ni"": 2.0, ""Sb"": 1.0, ""Te"": 2.0}",494.346,#7FFF00,hexagonal,{33},797.0
Veatchite,Sr2B11O16(OH)5·H2O,"{""Sr"": 2.0, ""B"": 11.0, ""O"": 22.0, ""H"": 7.0}",653.184,#FFFFFF,triclinic,{25},210.0
Vegrandisite,BaCl2,"{""Ba"": 1.0, ""Cl"": 2.0}",208.23,#FFFFFF,orthorhombic,{},1.0
Vendidaite,Al2(SO4)(OH)3Cl·6H2O,"{""Al"": 2.0, ""S"": 1.0, ""O"": 13.0, ""H"": 15.0, ""Cl"": 1.0}",344.581,#FFFFFF,monoclinic,{47},1998.0
Verbeekite,PdSe2,"{""Pd"": 1.0, ""Se"": 2.0}",264.362,#FFFFFF,monoclinic,{33},797.0
Verbierite,BeCr3+2TiO6,"{""Be"": 1.0, ""Cr"": 2.0, ""Ti"": 1.0, ""O"": 6.0}",256.8652,#FFFFFF,orthorhombic,{34},564.0
Vergasovaite,Cu3O(MoO4)(SO4),"{""Cu"": 3.0, ""O"": 9.0, ""Mo"": 1.0, ""S"": 1.0}",462.639,#FFFFFF,orthorhombic,{45},424.0
Verneite,Na2Ca3Al2F14,"{""Na"": 2.0, ""Ca"": 3.0, ""Al"": 2.0, ""F"": 14.0}",486.15,#FFFFFF,cubic,{45},424.0
Versiliaite,(Fe2+2Fe3+2)(Fe3+2Sb3+6)O16S,"{""Fe"": 6.0, ""Sb"": 6.0, ""O"": 16.0, ""S"": 1.0}",1353.674,#556B2F,orthorhombic,{40},319.0
Vertumnite,Ca4Al4Si4O6(OH)24·3H2O,"{""Ca"": 4.0, ""Al"": 4.0, ""Si"": 4.0, ""O"": 33.0, ""H"": 30.0}",938.787,#FFFFFF,hexagonal,"{8,10}",200.0
Vesignieite,Cu3Ba(VO4)2(OH)2,"{""Cu"": 3.0, ""Ba"": 1.0, ""V"": 2.0, ""O"": 10.0, ""H"": 2.0}",591.858,#FFFFFF,monoclinic,{47},1998.0
Vestaite,(Ti4+Fe2+)Ti4+3O9,"{""Ti"": 4.0, ""Fe"": 1.0, ""O"": 9.0}",391.304,#8B4513,monoclinic,{6},205.0
Vigezzite,CaNb2O6,"{""Ca"": 1.0, ""Nb"": 2.0, ""O"": 6.0}",321.884,#FFFFFF,orthorhombic,"{34,36}",855.0
Vihorlatite,Bi24Se17Te4,"{""Bi"": 24.0, ""Se"": 17.0, ""Te"": 4.0}",6868.427,#D2B48C,hexagonal,{33},797.0
Viitaniemiite,NaCaAl(PO4)F3,"{""Na"": 1.0, ""Ca"": 1.0, ""Al"": 1.0, ""P"": 1.0, ""O"": 4.0, ""F"": 3.0}",242.014,#FFFFFF,monoclinic,"{19,34}",707.0
Vikingite,Ag5Pb8Bi13S30,"{""Ag"": 5.0, ""Pb"": 8.0, ""Bi"": 13.0, ""S"": 30.0}",5875.49,#708090,monoclinic,{33},797.0
Villamaninite,CuS2,"{""Cu"": 1.0, ""S"": 2.0}",127.666,#A9A9A9,monoclinic,{12},129.0
Villiaumite,NaF,"{""Na"": 1.0, ""F"": 1.0}",41.988,#FFFFFF,cubic,"{25,35}",936.0
Vimsite,CaB2O2(OH)4,"{""Ca"": 1.0, ""B"": 2.0, ""O"": 6.0, ""H"": 4.0}",161.724,#FFFFFF,monoclinic,{23},398.0
Vincentite,Pd3As,"{""Pd"": 3.0, ""As"": 1.0}",394.182,#808080,monoclinic,"{33,37}",932.0
Violarite,FeNi2S4,"{""Fe"": 1.0, ""Ni"": 2.0, ""S"": 4.0}",301.471,#DAA520,cubic,"{12,33,37}",1061.0
Virgilite,LiAlSi2O6,"{""Li"": 1.0, ""Al"": 1.0, ""Si"": 2.0, ""O"": 6.0}",186.086,#FFFFFF,hexagonal,"{9,26}",377.0
Virgilluethite,MoO3·H2O,"{""Mo"": 1.0, ""O"": 4.0, ""H"": 2.0}",161.962,#FFFFFF,monoclinic,{},1.0
Vishnevite,Na8(Al6Si6)O24(SO4)·2H2O,"{""Na"": 8.0, ""Al"": 6.0, ""Si"": 6.0, ""O"": 30.0, ""S"": 1.0, ""H"": 4.0}",1030.384,#FFFFFF,hexagonal,{35},726.0
Viskontite,Pb5Cu2(SO4)3(SeO3)(OH)6,"{""Pb"": 5.0, ""Cu"": 2.0, ""S"": 3.0, ""O"": 21.0, ""Se"": 1.0, ""H"": 6.0}",1680.27,#FFFFFF,orthorhombic,{},1.0
Vitimite,Ca6B14O19(SO4)(OH)14·5H2O,"{""Ca"": 6.0, ""B"": 14.0, ""O"": 42.0, ""S"": 1.0, ""H"": 24.0}",1120.018,#FFFFFF,monoclinic,{23},398.0
Vitusite-(Ce),Na3Ce(PO4)2,"{""Na"": 3.0, ""Ce"": 1.0, ""P"": 2.0, ""O"": 8.0}",399.03,#FFFFFF,orthorhombic,{35},726.0
Vivianite,Fe2+3(PO4)2·8H2O,"{""Fe"": 3.0, ""P"": 2.0, ""O"": 16.0, ""H"": 16.0}",501.595,#556B2F,monoclinic,"{21,25,47,49,53}",2481.0
Vladimirite,Ca4(AsO4)2(AsO3OH)·4H2O,"{""Ca"": 4.0, ""As"": 3.0, ""O"": 16.0, ""H"": 9.0}",650.134,#FFFFFF,monoclinic,"{47,55}",2262.0
Vladykinite,Na3Sr4(Fe2+Fe3+)Si8O24,"{""Na"": 3.0, ""Sr"": 4.0, ""Fe"": 2.0, ""Si"": 8.0, ""O"": 24.0}",1139.796,#556B2F,monoclinic,{35},726.0
Vlasovite,Na2ZrSi4O11,"{""Na"": 2.0, ""Zr"": 1.0, ""Si"": 4.0, ""O"": 11.0}",425.533,#FFFFFF,monoclinic,"{19,35}",869.0
Vlodavetsite,Ca2Al(SO4)2F2Cl·4H2O,"{""Ca"": 2.0, ""Al"": 1.0, ""S"": 2.0, ""O"": 12.0, ""F"": 2.0, ""Cl"": 1.0, ""H"": 8.0}",444.756,#FFFFFF,tetragonal,{45},424.0
Vochtenite,Fe2+Fe3+(UO2)4(PO4)4(OH)·12-13H2O,"{""Fe"": 2.0, ""U"": 4.0, ""O"": 38.0, ""P"": 4.0, ""H"": 27.0}",1822.884,#556B2F,monoclinic,{47},1998.0
Voggite,Na2Zr(PO4)(CO3)(OH)·2H2O,"{""Na"": 2.0, ""Zr"": 1.0, ""P"": 1.0, ""O"": 10.0, ""C"": 1.0, ""H"": 5.0}",345.219,#FFFFFF,monoclinic,"{8,10}",200.0
Voglite,Ca2Cu(UO2)(CO3)4·6H2O,"{""Ca"": 2.0, ""Cu"": 1.0, ""U"": 1.0, ""O"": 20.0, ""C"": 4.0, ""H"": 12.0}",761.852,#FFFFFF,monoclinic,{47},1998.0
Volaschioite,Fe4(SO4)O2(OH)6·2H2O,"{""Fe"": 4.0, ""S"": 1.0, ""O"": 14.0, ""H"": 10.0}",489.506,#556B2F,monoclinic,"{47,55}",2262.0
Volborthite,Cu3V2O7(OH)2·2H2O,"{""Cu"": 3.0, ""V"": 2.0, ""O"": 11.0, ""H"": 6.0}",474.559,#FFFFFF,monoclinic,"{47,53,55}",2379.0
Volkovskite,KCa4B22O32(OH)10Cl·4H2O,"{""K"": 1.0, ""Ca"": 4.0, ""B"": 22.0, ""O"": 46.0, ""H"": 18.0, ""Cl"": 1.0}",1226.778,#FFFFFF,triclinic,{25},210.0
Voltaite,K2Fe2+5Fe3+3Al(SO4)12·18H2O,"{""K"": 2.0, ""Fe"": 8.0, ""Al"": 1.0, ""S"": 12.0, ""O"": 66.0, ""H"": 36.0}",2028.88,#556B2F,cubic,"{45,47,55}",2686.0
Volynskite,AgBiTe2,"{""Ag"": 1.0, ""Bi"": 1.0, ""Te"": 2.0}",572.05,#C0C0C0,hexagonal,{33},797.0
Vonbezingite,Ca6Cu3(SO4)3(OH)12·2H2O,"{""Ca"": 6.0, ""Cu"": 3.0, ""S"": 3.0, ""O"": 26.0, ""H"": 16.0}",959.388,#FFFFFF,monoclinic,{47},1998.0
Vonsenite,Fe2+2Fe3+O2(BO3),"{""Fe"": 3.0, ""O"": 5.0, ""B"": 1.0}",258.34,#8B4513,orthorhombic,"{23,31,45}",1178.0
Vorlanite,CaUO4,"{""Ca"": 1.0, ""U"": 1.0, ""O"": 4.0}",342.104,#ADFF2F,cubic,"{9,31,51}",611.0
Vorontsovite,(Hg5Cu)TlAs4S12,"{""Hg"": 5.0, ""Cu"": 1.0, ""Tl"": 1.0, ""As"": 4.0, ""S"": 12.0}",1955.284,#FFD700,cubic,{33},797.0
Voudourisite,Cd(SO4)·H2O,"{""Cd"": 1.0, ""S"": 1.0, ""O"": 5.0, ""H"": 2.0}",226.481,#FFFFFF,monoclinic,"{47,50,54}",2505.0
Vozhminite,Ni4AsS2,"{""Ni"": 4.0, ""As"": 1.0, ""S"": 2.0}",373.814,#FFD700,hexagonal,{33},797.0
Vranaite,Al16B4Si4O38,"{""Al"": 16.0, ""B"": 4.0, ""Si"": 4.0, ""O"": 38.0}",1195.254,#FFFFFF,monoclinic,"{22,34}",811.0
Vranciceite,Cu10Hg3S8,"{""Cu"": 10.0, ""Hg"": 3.0, ""S"": 8.0}",1493.71,#A9A9A9,triclinic,{},1.0
Vrbaite,Hg3Tl4As8Sb2S20,"{""Hg"": 3.0, ""Tl"": 4.0, ""As"": 8.0, ""Sb"": 2.0, ""S"": 20.0}",2903.386,#FFD700,orthorhombic,{33},797.0
Vuagnatite,CaAlSiO4(OH),"{""Ca"": 1.0, ""Al"": 1.0, ""Si"": 1.0, ""O"": 5.0, ""H"": 1.0}",176.148,#FFFFFF,orthorhombic,{13},67.0
Vulcanite,CuTe,"{""Cu"": 1.0, ""Te"": 1.0}",191.146,#00BFFF,orthorhombic,{33},797.0
Vuonnemite,Na6Na2Nb2Na3Ti(Si2O7)2(PO4)2O2(OF),"{""Na"": 11.0, ""Nb"": 2.0, ""Ti"": 1.0, ""Si"": 4.0, ""O"": 25.0, ""P"": 2.0, ""F"": 1.0}",1079.83,#FFFFFF,triclinic,"{9,35}",853.0
Vyacheslavite,U4+(PO4)(OH),"{""U"": 1.0, ""P"": 1.0, ""O"": 5.0, ""H"": 1.0}",350.007,#FFFFFF,orthorhombic,{47},1998.0
Vyalsovite,CaFeAlS(OH)5,"{""Ca"": 1.0, ""Fe"": 1.0, ""Al"": 1.0, ""S"": 1.0, ""O"": 5.0, ""H"": 5.0}",240.0,#556B2F,monoclinic,"{31,33}",1153.0
Vymazalovaite,Pd3Bi2S2,"{""Pd"": 3.0, ""Bi"": 2.0, ""S"": 2.0}",801.34,#A9A9A9,cubic,{33},797.0
Vysokyite,U4+[AsO2(OH)2]4·4H2O,"{""U"": 1.0, ""As"": 4.0, ""O"": 20.0, ""H"": 16.0}",873.826,#FFFFFF,triclinic,"{47,55}",2262.0
Vysotskite,PdS,"{""Pd"": 1.0, ""S"": 1.0}",138.48,#A9A9A9,tetragonal,"{12,37}",264.0
Wadalite,Ca6Al5Si2O16Cl3,"{""Ca"": 6.0, ""Al"": 5.0, ""Si"": 2.0, ""O"": 16.0, ""Cl"": 3.0}",793.882,#FFFFFF,cubic,"{6,45,54}",863.0
Wadeite,K2ZrSi3O9,"{""K"": 2.0, ""Zr"": 1.0, ""Si"": 3.0, ""O"": 9.0}",397.666,#FFFFFF,hexagonal,{35},726.0
Wadsleyite,Mg2SiO4,"{""Mg"": 2.0, ""Si"": 1.0, ""O"": 4.0}",140.691,#FFFFFF,monoclinic,{6},205.0
Wagnerite,Mg2(PO4)F,"{""Mg"": 2.0, ""P"": 1.0, ""O"": 4.0, ""F"": 1.0}",162.578,#FFFFFF,monoclinic,"{21,34,35,39,40,50,54}",2265.0
Waimirite-(Y),YF3,"{""Y"": 1.0, ""F"": 3.0}",145.9,#FFFFFF,orthorhombic,{23},398.0
Wairakite,Ca(Si4Al2)O12·2H2O,"{""Ca"": 1.0, ""Si"": 4.0, ""Al"": 2.0, ""O"": 14.0, ""H"": 4.0}",434.4,#FFFFFF,monoclinic,"{14,16,17}",195.0
Wairauite,CoFe,"{""Co"": 1.0, ""Fe"": 1.0}",114.778,#4169E1,cubic,"{6,13,38}",380.0
Wakefieldite-(Ce),CeVO4,"{""Ce"": 1.0, ""V"": 1.0, ""O"": 4.0}",255.058,#FFFFFF,tetragonal,"{31,34}",920.0
Wakefieldite-(La),LaVO4,"{""La"": 1.0, ""V"": 1.0, ""O"": 4.0}",253.848,#FFFFFF,tetragonal,"{31,34}",920.0
Wakefieldite-(Nd),NdVO4,"{""Nd"": 1.0, ""V"": 1.0, ""O"": 4.0}",259.178,#FFFFFF,tetragonal,"{31,34}",920.0
Wakefieldite-(Y),YVO4,"{""Y"": 1.0, ""V"": 1.0, ""O"": 4.0}",203.844,#FFFFFF,tetragonal,{34},564.0
Wallisite,CuPbTlAs2S5,"{""Cu"": 1.0, ""Pb"": 1.0, ""Tl"": 1.0, ""As"": 2.0, ""S"": 5.0}",785.27,#708090,triclinic,{33},797.0
Wallkilldellite-(Fe),Ca2Fe2+3(AsO4)2(OH)4·9H2O,"{""Ca"": 2.0, ""Fe"": 3.0, ""As"": 2.0, ""O"": 21.0, ""H"": 22.0}",755.69,#556B2F,hexagonal,{47},1998.0
Walpurgite,Bi4O4(UO2)(AsO4)2·2H2O,"{""Bi"": 4.0, ""O"": 16.0, ""U"": 1.0, ""As"": 2.0, ""H"": 4.0}",1483.81,#FFFFFF,triclinic,{47},1998.0
Walstromite,BaCa2Si3O9,"{""Ba"": 1.0, ""Ca"": 2.0, ""Si"": 3.0, ""O"": 9.0}",445.732,#FFFFFF,triclinic,"{32,51}",540.0
Wampenite,C18H16,"{""C"": 18.0, ""H"": 16.0}",232.326,#FFFFFF,monoclinic,{53},117.0
Wangdaodeite,FeTiO3,"{""Fe"": 1.0, ""Ti"": 1.0, ""O"": 3.0}",151.709,#8B4513,hexagonal,"{6,30}",221.0
Wangkuirenite,Pb3Cl2(SeO3)2,"{""Pb"": 3.0, ""Cl"": 2.0, ""Se"": 2.0, ""O"": 6.0}",946.436,#FFFFFF,monoclinic,{},1.0
Wangpuite,K3(PO4)(Mo12O36),"{""K"": 3.0, ""P"": 1.0, ""O"": 40.0, ""Mo"": 12.0}",1939.628,#FFFFFF,cubic,{},1.0
Wangxibinite,TiFe,"{""Ti"": 1.0, ""Fe"": 1.0}",103.712,#8B4513,cubic,{},1.0
Wangyanite,PdNi8S8,"{""Pd"": 1.0, ""Ni"": 8.0, ""S"": 8.0}",832.444,#A9A9A9,cubic,{},1.0
Wardite,NaAl3(PO4)2(OH)4·2H2O,"{""Na"": 1.0, ""Al"": 3.0, ""P"": 2.0, ""O"": 14.0, ""H"": 8.0}",397.934,#FFFFFF,tetragonal,"{21,22,47}",2324.0
Wardsmithite,Ca5Mg(B4O7)6·30H2O,"{""Ca"": 5.0, ""Mg"": 1.0, ""B"": 24.0, ""O"": 72.0, ""H"": 60.0}",1696.543,#FFFFFF,unknown,{47},1998.0
Warkite,Ca2Sc6Al6O20,"{""Ca"": 2.0, ""Sc"": 6.0, ""Al"": 6.0, ""O"": 20.0}",831.764,#FFFFFF,triclinic,{3},48.0
Wassonite,TiS,"{""Ti"": 1.0, ""S"": 1.0}",79.927,#A9A9A9,hexagonal,"{4,6}",252.0
Wattersite,Hg1+4Hg2+O2(CrO4),"{""Hg"": 5.0, ""O"": 6.0, ""Cr"": 1.0}",1150.94,#228B22,monoclinic,{47},1998.0
Wattevilleite,Na2Ca(SO4)2·4H2O (?),"{""Na"": 2.0, ""Ca"": 1.0, ""S"": 2.0, ""O"": 12.0, ""H"": 8.0}",350.23,#FFFFFF,monoclinic,"{47,50,55}",2535.0
Wavellite,Al3(PO4)2(OH)3·5H2O,"{""Al"": 3.0, ""P"": 2.0, ""O"": 16.0, ""H"": 13.0}",411.982,#FFFFFF,orthorhombic,"{23,47}",2396.0
Waylandite,BiAl3(PO4)2(OH)6,"{""Bi"": 1.0, ""Al"": 3.0, ""P"": 2.0, ""O"": 14.0, ""H"": 6.0}",581.908,#FFFFFF,hexagonal,{47},1998.0
Wayneburnhamite,Pb9Ca6(Si2O7)3(SiO4)3,"{""Pb"": 9.0, ""Ca"": 6.0, ""Si"": 9.0, ""O"": 33.0}",2886.0,#FFFFFF,hexagonal,{32},412.0
Weberite,Na2MgAlF7,"{""Na"": 2.0, ""Mg"": 1.0, ""Al"": 1.0, ""F"": 7.0}",230.253,#FFFFFF,orthorhombic,"{23,35,36}",1415.0
Weddellite,Ca(C2O4)·2H2O,"{""Ca"": 1.0, ""C"": 2.0, ""O"": 6.0, ""H"": 4.0}",164.126,#FFFFFF,tetragonal,"{24,48,49,52,53}",411.0
Weeksite,(K)2(UO2)2(Si5O13)·4H2O,"{""K"": 2.0, ""U"": 2.0, ""O"": 21.0, ""Si"": 5.0, ""H"": 8.0}",1038.724,#FFFFFF,orthorhombic,{47},1998.0
Wegscheiderite,Na5H3(CO3)4,"{""Na"": 5.0, ""H"": 3.0, ""C"": 4.0, ""O"": 12.0}",358.006,#FFFFFF,triclinic,{47},1998.0
Weilerite,BaAl3(SO4)(AsO4)(OH)6,"{""Ba"": 1.0, ""Al"": 3.0, ""S"": 1.0, ""O"": 14.0, ""As"": 1.0, ""H"": 6.0}",555.292,#FFFFFF,unknown,{47},1998.0
Weilite,Ca(AsO3OH),"{""Ca"": 1.0, ""As"": 1.0, ""O"": 4.0, ""H"": 1.0}",180.004,#FFFFFF,triclinic,"{47,55}",2262.0
Weinebeneite,CaBe3(PO4)2(OH)2·4H2O,"{""Ca"": 1.0, ""Be"": 3.0, ""P"": 2.0, ""O"": 14.0, ""H"": 10.0}",363.1286,#FFFFFF,monoclinic,"{22,47}",2245.0
Weissbergite,TlSbS2,"{""Tl"": 1.0, ""Sb"": 1.0, ""S"": 2.0}",390.26,#A9A9A9,triclinic,{33},797.0
Weloganite,Na2Sr3Zr(CO3)6·3H2O,"{""Na"": 2.0, ""Sr"": 3.0, ""Zr"": 1.0, ""C"": 6.0, ""O"": 21.0, ""H"": 6.0}",814.157,#FFFFFF,triclinic,{35},726.0
Welshite,Ca4[Mg9Sb5+3]O4[Si6Be3AlFe3+2O36],"{""Ca"": 4.0, ""Mg"": 9.0, ""Sb"": 3.0, ""O"": 40.0, ""Si"": 6.0, ""Be"": 3.0, ""Al"": 1.0, ""Fe"": 2.0}",1718.5156,#556B2F,triclinic,{31},356.0
Wendwilsonite,Ca2Mg(AsO4)2·2H2O,"{""Ca"": 2.0, ""Mg"": 1.0, ""As"": 2.0, ""O"": 10.0, ""H"": 4.0}",418.327,#FFFFFF,monoclinic,{47},1998.0
Wenlanzhangite-(Y),Y2V3+2V4+2(SiO4)2O4(OH)4,"{""Y"": 2.0, ""V"": 4.0, ""Si"": 2.0, ""O"": 16.0, ""H"": 4.0}",697.766,#FFFFFF,triclinic,{},1.0
Wenqingite,Pb5(AsS3)2(Ge2S6),"{""Pb"": 5.0, ""As"": 2.0, ""S"": 12.0, ""Ge"": 2.0}",1715.824,#708090,monoclinic,{},1.0
Werdingite,Mg2Al14Si4B4O37,"{""Mg"": 2.0, ""Al"": 14.0, ""Si"": 4.0, ""B"": 4.0, ""O"": 37.0}",1173.901,#FFFFFF,triclinic,{40},319.0