name,formula,elements,density,color,crystal,pm_ids,gacha_weight
Abellaite,NaPb2(CO3)2(OH),"{""Na"": 1.0, ""Pb"": 2.0, ""C"": 2.0, ""O"": 7.0, ""H"": 1.0}",574.413,#FFFFFF,hexagonal,{47},1.5015e-07
Abelloemringerite,Cu2Pb2Mn3+Mn4+3O11(OH)(H2O)2·H2O,"{""Cu"": 2.0, ""Pb"": 2.0, ""Mn"": 4.0, ""O"": 15.0, ""H"": 7.0}",1008.285,#FFFFFF,orthorhombic,{},5e-08
Abelsonite,NiC31H32N4,"{""Ni"": 1.0, ""C"": 31.0, ""H"": 32.0, ""N"": 4.0}",519.318,#FFFFFF,triclinic,"{47,50}",1.8678e-07
Abenakiite-(Ce),Na26Ce6(Si6O18)(PO4)6(CO3)6(SO2)O,"{""Na"": 26.0, ""Ce"": 6.0, ""Si"": 6.0, ""O"": 63.0, ""P"": 6.0, ""C"": 6.0, ""S"": 1.0}",2904.877,#FFFFFF,hexagonal,{35},2.75e-10
Abernathyite,K(UO2)(AsO4)·3H2O,"{""K"": 1.0, ""U"": 1.0, ""O"": 9.0, ""As"": 1.0, ""H"": 6.0}",502.089,#FFFFFF,tetragonal,{47},1.5015e-07
Abhurite,Sn2+21O6(OH)14Cl16,"{""Sn"": 21.0, ""O"": 20.0, ""H"": 14.0, ""Cl"": 16.0}",3394.202,#FFFFFF,hexagonal,"{47,57}",3.54232e-07
Abramovite,Pb2SnInBiS7,"{""Pb"": 2.0, ""Sn"": 1.0, ""In"": 1.0, ""Bi"": 1.0, ""S"": 7.0}",1081.33,#708090,triclinic,{11},5.556e-09
Abswurmbachite,Cu2+Mn3+6O8(SiO4),"{""Cu"": 1.0, ""Mn"": 6.0, ""O"": 12.0, ""Si"": 1.0}",613.247,#FFFFFF,tetragonal,{32},1.214e-09
Abuite,CaAl2(PO4)2F2,"{""Ca"": 1.0, ""Al"": 2.0, ""P"": 2.0, ""O"": 8.0, ""F"": 2.0}",321.978,#FFFFFF,orthorhombic,{23},8.794e-08
Acanthite,Ag2S,"{""Ag"": 2.0, ""S"": 1.0}",247.8,#A9A9A9,monoclinic,"{33,49}",2.848e-09
Acetamide,CH3CONH2,"{""C"": 2.0, ""H"": 5.0, ""O"": 1.0, ""N"": 1.0}",59.068,#FFFFFF,hexagonal,{54},4.2735e-08
Achalaite,Fe2+TiNb2O8,"{""Fe"": 1.0, ""Ti"": 1.0, ""Nb"": 2.0, ""O"": 8.0}",417.516,#556B2F,monoclinic,{34},5.319e-09
Achavalite,FeSe,"{""Fe"": 1.0, ""Se"": 1.0}",134.816,#8B4513,hexagonal,{33},1.2547e-08
Acuminite,SrAlF4(OH)·H2O,"{""Sr"": 1.0, ""Al"": 1.0, ""F"": 4.0, ""O"": 2.0, ""H"": 3.0}",225.616,#FFFFFF,monoclinic,{25},2.381e-09
Adachiite,CaFe2+3Al6(Si5AlO18)(BO3)3(OH)3(OH),"{""Ca"": 1.0, ""Fe"": 3.0, ""Al"": 7.0, ""Si"": 5.0, ""O"": 31.0, ""B"": 3.0, ""H"": 4.0}",1069.343,#556B2F,hexagonal,{34},1.773e-08
Adamite,Zn2(AsO4)(OH),"{""Zn"": 2.0, ""As"": 1.0, ""O"": 5.0, ""H"": 1.0}",286.685,#FFFFFF,orthorhombic,{47},1.5015e-07
Adamsite-(Y),NaY(CO3)2·6H2O,"{""Na"": 1.0, ""Y"": 1.0, ""C"": 2.0, ""O"": 12.0, ""H"": 12.0}",340.002,#FFFFFF,triclinic,"{23,35}",1.772568e-06
Adanite,Pb2(Te4+O3)(SO4),"{""Pb"": 2.0, ""Te"": 1.0, ""O"": 7.0, ""S"": 1.0}",686.053,#FFFFFF,monoclinic,{47},3.003e-09
Addibischoffite,Ca2Al6Al6O20,"{""Ca"": 2.0, ""Al"": 12.0, ""O"": 20.0}",723.92,#FFFFFF,triclinic,{3},2.70833e-07
Adelite,CaMg(AsO4)(OH),"{""Ca"": 1.0, ""Mg"": 1.0, ""As"": 1.0, ""O"": 5.0, ""H"": 1.0}",220.308,#FFFFFF,orthorhombic,"{32,47}",1.74422e-07
Admontite,MgB6O10·7H2O,"{""Mg"": 1.0, ""B"": 6.0, ""O"": 17.0, ""H"": 14.0}",375.26,#FFFFFF,monoclinic,{25},4.7619e-08
Adolfpateraite,K(UO2)(SO4)(OH)(H2O),"{""K"": 1.0, ""U"": 1.0, ""O"": 8.0, ""S"": 1.0, ""H"": 3.0}",440.204,#FFFFFF,monoclinic,"{47,55}",3.761e-09
Adranosite,(NH4)4NaAl2(SO4)4Cl(OH)2,"{""N"": 4.0, ""H"": 18.0, ""Na"": 1.0, ""Al"": 2.0, ""S"": 4.0, ""O"": 18.0, ""Cl"": 1.0}",602.798,#FFFFFF,tetragonal,"{45,55}",1.229e-09
Adranosite-(Fe),(NH4)4NaFe2(SO4)4Cl(OH)2,"{""N"": 4.0, ""H"": 18.0, ""Na"": 1.0, ""Fe"": 2.0, ""S"": 4.0, ""O"": 18.0, ""Cl"": 1.0}",660.524,#556B2F,tetragonal,{45},4.72e-10
Adrianite,Ca12(Al4Mg3Si7)O32Cl6,"{""Ca"": 12.0, ""Al"": 4.0, ""Mg"": 3.0, ""Si"": 7.0, ""O"": 32.0, ""Cl"": 6.0}",1583.042,#FFFFFF,cubic,{6},4.878e-08
Aegirine,NaFe3+Si2O6,"{""Na"": 1.0, ""Fe"": 1.0, ""Si"": 2.0, ""O"": 6.0}",230.999,#556B2F,monoclinic,"{7,19,23,26,35,36,39,40,51}",8.8385414e-05
Aenigmatite,Na4[Fe2+10Ti2]O4[Si12O36],"{""Na"": 4.0, ""Fe"": 10.0, ""Ti"": 2.0, ""O"": 40.0, ""Si"": 12.0}",1723.124,#556B2F,triclinic,"{6,9,19,20,35,36}",1.0608875e-05
Aeschynite-(Ce),Ce(TiNb)O6,"{""Ce"": 1.0, ""Ti"": 1.0, ""Nb"": 1.0, ""O"": 6.0}",376.887,#FFFFFF,orthorhombic,"{19,34,35,36}",1.0509271e-05
Aeschynite-(Nd),Nd(TiNb)O6,"{""Nd"": 1.0, ""Ti"": 1.0, ""Nb"": 1.0, ""O"": 6.0}",381.007,#FFFFFF,orthorhombic,{34},5.319e-09
Aeschynite-(Y),Y(TiNb)O6,"{""Y"": 1.0, ""Ti"": 1.0, ""Nb"": 1.0, ""O"": 6.0}",325.673,#FFFFFF,orthorhombic,"{34,36}",1.5628e-08
Afmite,Al3(OH)4(H2O)3(PO4)(PO3OH)·H2O,"{""Al"": 3.0, ""O"": 16.0, ""H"": 13.0, ""P"": 2.0}",411.982,#FFFFFF,triclinic,"{21,34,47}",2.9446e-08
Afwillite,Ca3[SiO4][SiO2(OH)2]·2H2O,"{""Ca"": 3.0, ""Si"": 2.0, ""O"": 10.0, ""H"": 6.0}",342.442,#FFFFFF,triclinic,"{31,51}",1.38079e-07
Agaite,Pb3Cu2+Te6+O5(OH)2(CO3),"{""Pb"": 3.0, ""Cu"": 1.0, ""Te"": 1.0, ""O"": 10.0, ""H"": 2.0, ""C"": 1.0}",986.763,#FFFFFF,orthorhombic,{47},1.5015e-07
Agardite-(Ce),CeCu2+6(AsO4)3(OH)6·3H2O,"{""Ce"": 1.0, ""Cu"": 6.0, ""As"": 3.0, ""O"": 21.0, ""H"": 12.0}",1094.237,#FFFFFF,hexagonal,{47},1.5015e-07
Agardite-(La),LaCu2+6(AsO4)3(OH)6·3H2O,"{""La"": 1.0, ""Cu"": 6.0, ""As"": 3.0, ""O"": 21.0, ""H"": 12.0}",1093.027,#FFFFFF,hexagonal,{47},1.5015e-07
Agardite-(Nd),NdCu2+6(AsO4)3(OH)6·3H2O,"{""Nd"": 1.0, ""Cu"": 6.0, ""As"": 3.0, ""O"": 21.0, ""H"": 12.0}",1098.357,#FFFFFF,hexagonal,{47},1.5015e-07
Agardite-(Y),YCu2+6(AsO4)3(OH)6·3H2O,"{""Y"": 1.0, ""Cu"": 6.0, ""As"": 3.0, ""O"": 21.0, ""H"": 12.0}",1043.023,#FFFFFF,hexagonal,{47},1.5015e-07
Agmantinite,Ag2MnSnS4,"{""Ag"": 2.0, ""Mn"": 1.0, ""Sn"": 1.0, ""S"": 4.0}",517.628,#A9A9A9,orthorhombic,{33},2.51e-10
Agrellite,NaCa2Si4O10F,"{""Na"": 1.0, ""Ca"": 2.0, ""Si"": 4.0, ""O"": 10.0, ""F"": 1.0}",394.474,#FFFFFF,triclinic,{35},6.89e-10
Agricolaite,K4(UO2)(CO3)3,"{""K"": 4.0, ""U"": 1.0, ""O"": 11.0, ""C"": 3.0}",606.444,#FFFFFF,monoclinic,{47},1.5015e-07
Agrinierite,K2Ca[(UO2)3O3(OH)2]2·5H2O,"{""K"": 2.0, ""Ca"": 1.0, ""U"": 6.0, ""O"": 27.0, ""H"": 14.0}",1992.539,#FFFFFF,orthorhombic,{47},1.5015e-07
Aguilarite,Ag4SeS,"{""Ag"": 4.0, ""Se"": 1.0, ""S"": 1.0}",542.511,#A9A9A9,monoclinic,{33},2.51e-10
Aheylite,Fe2+Al6(PO4)4(OH)8·4H2O,"{""Fe"": 1.0, ""Al"": 6.0, ""P"": 4.0, ""O"": 28.0, ""H"": 16.0}",805.733,#556B2F,triclinic,{47},1.5015e-08
Ahlfeldite,Ni(SeO3)·2H2O,"{""Ni"": 1.0, ""Se"": 1.0, ""O"": 5.0, ""H"": 4.0}",221.691,#FFFFFF,monoclinic,{47},1.5015e-07
Ahrensite,SiFe2O4,"{""Si"": 1.0, ""Fe"": 2.0, ""O"": 4.0}",203.771,#8B4513,cubic,{6},9.2683e-08
Aikinite,CuPbBiS3,"{""Cu"": 1.0, ""Pb"": 1.0, ""Bi"": 1.0, ""S"": 3.0}",575.906,#708090,orthorhombic,{33},2.51e-10
Aiolosite,Na2(Na2Bi)(SO4)3Cl,"{""Na"": 4.0, ""Bi"": 1.0, ""S"": 3.0, ""O"": 12.0, ""Cl"": 1.0}",624.558,#FFFFFF,hexagonal,{45},4.72e-10
Airdite,Sr(V4+O)2(PO4)2·4H2O,"{""Sr"": 1.0, ""V"": 2.0, ""O"": 14.0, ""P"": 2.0, ""H"": 8.0}",483.502,#FFFFFF,monoclinic,{47},1.5015e-08
Ajoite,K3Cu2+20Al3Si29O76(OH)16·8H2O,"{""K"": 3.0, ""Cu"": 20.0, ""Al"": 3.0, ""Si"": 29.0, ""O"": 100.0, ""H"": 32.0}",3915.781,#FFFFFF,triclinic,{47},1.5015e-07
Akaogiite,TiO2,"{""Ti"": 1.0, ""O"": 2.0}",79.865,#FFFFFF,monoclinic,{30},1.875e-07
Akasakaite-(Ce),CaCe(Al2Mn2+)(Si2O7)(SiO4)O(OH),"{""Ca"": 1.0, ""Ce"": 1.0, ""Al"": 2.0, ""Mn"": 1.0, ""Si"": 3.0, ""O"": 13.0, ""H"": 1.0}",582.35,#FFFFFF,monoclinic,{},5e-08
Akasakaite-(La),CaLa(Al2Mn2+)(Si2O7)(SiO4)O(OH),"{""Ca"": 1.0, ""La"": 1.0, ""Al"": 2.0, ""Mn"": 1.0, ""Si"": 3.0, ""O"": 13.0, ""H"": 1.0}",581.14,#FFFFFF,monoclinic,{},5e-08
Akatoreite,Mn2+9Al2Si8O24(OH)8,"{""Mn"": 9.0, ""Al"": 2.0, ""Si"": 8.0, ""O"": 32.0, ""H"": 8.0}",1293.118,#FFFFFF,triclinic,"{9,32}",5.151e-09
Akdalaite,Al5O7(OH),"{""Al"": 5.0, ""O"": 8.0, ""H"": 1.0}",263.91,#FFFFFF,orthorhombic,{23},5.100503e-06
Akermanite,Ca2MgSi2O7,"{""Ca"": 2.0, ""Mg"": 1.0, ""Si"": 2.0, ""O"": 7.0}",272.624,#FFFFFF,tetragonal,"{3,6,8,31,35,36,40,51}",2.1147709e-05
Akhtenskite,MnO2,"{""Mn"": 1.0, ""O"": 2.0}",86.936,#FFB6C1,hexagonal,"{32,42,47}",4.2054e-08
Akimotoite,MgSiO3,"{""Mg"": 1.0, ""Si"": 1.0, ""O"": 3.0}",100.387,#FFFFFF,hexagonal,{6},6.3415e-08
Aklimaite,Ca4[Si2O5(OH)2](OH)4·5H2O,"{""Ca"": 4.0, ""Si"": 2.0, ""O"": 16.0, ""H"": 16.0}",488.594,#FFFFFF,monoclinic,{10},1.21495e-07
Akopovaite,Al4Li2(OH)12(CO3)(H2O)3,"{""Al"": 4.0, ""Li"": 2.0, ""O"": 18.0, ""H"": 18.0, ""C"": 1.0}",439.945,#FFFFFF,monoclinic,{48},1.40845e-07
Akrochordite,MnMn2Mn2(AsO4)2(OH)4(H2O)4,"{""Mn"": 5.0, ""As"": 2.0, ""O"": 16.0, ""H"": 12.0}",692.614,#FFFFFF,monoclinic,{32},1.214e-09
Aksaite,MgB6O7(OH)6·2H2O,"{""Mg"": 1.0, ""B"": 6.0, ""O"": 15.0, ""H"": 10.0}",339.23,#FFFFFF,orthorhombic,{25},4.7619e-08
Aktashite,Cu6Hg3As4S12,"{""Cu"": 6.0, ""Hg"": 3.0, ""As"": 4.0, ""S"": 12.0}",1667.454,#FFD700,hexagonal,{33},2.51e-10
Alabandite,MnS,"{""Mn"": 1.0, ""S"": 1.0}",86.998,#A9A9A9,cubic,"{4,5,12,33,36,38}",1.0723e-08
Alacranite,As8S9,"{""As"": 8.0, ""S"": 9.0}",887.916,#FFD700,monoclinic,"{11,12,33,50,54}",8.944e-09
Alamosite,PbSiO3,"{""Pb"": 1.0, ""Si"": 1.0, ""O"": 3.0}",283.282,#FFFFFF,monoclinic,{47},1.5015e-07
Alarsite,Al(AsO4),"{""Al"": 1.0, ""As"": 1.0, ""O"": 4.0}",165.9,#808080,hexagonal,{45},2.3585e-08
Albertiniite,Fe2+(SO3)·3H2O,"{""Fe"": 1.0, ""S"": 1.0, ""O"": 6.0, ""H"": 6.0}",189.947,#556B2F,monoclinic,{47},3.003e-09
Albite,Na(AlSi3O8),"{""Na"": 1.0, ""Al"": 1.0, ""Si"": 3.0, ""O"": 8.0}",262.219,#FFFFFF,monoclinic,"{4,5,7,9,10,16,17,19,22,23,24,26,34,35,40,43,45,51}",0.000121193431
Albrechtschraufite,MgCa4F2[UO2(CO3)3]2·17-18H2O,"{""Mg"": 1.0, ""Ca"": 4.0, ""F"": 2.0, ""U"": 2.0, ""O"": 40.0, ""C"": 6.0, ""H"": 36.0}",1446.987,#FFFFFF,triclinic,"{47,55}",9.401e-09
Alburnite,Ag8GeTe2S4,"{""Ag"": 8.0, ""Ge"": 1.0, ""Te"": 2.0, ""S"": 4.0}",1319.03,#A9A9A9,cubic,{33},2.51e-10
Alcaparrosaite,K3Ti4+Fe3+(SO4)4O(H2O)2,"{""K"": 3.0, ""Ti"": 1.0, ""Fe"": 1.0, ""S"": 4.0, ""O"": 19.0, ""H"": 4.0}",657.259,#556B2F,monoclinic,{47},3.003e-09
Aldermanite,[Mg(H2O)6][Na(H2O)2Al3(PO4)2(OH)6]·H2O,"{""Mg"": 1.0, ""H"": 24.0, ""O"": 23.0, ""Na"": 1.0, ""Al"": 3.0, ""P"": 2.0}",582.358,#FFFFFF,monoclinic,"{31,47}",1.7824e-08
Aldomarinoite,Sr2Mn3+(AsO4)2(OH),"{""Sr"": 2.0, ""Mn"": 1.0, ""As"": 2.0, ""O"": 9.0, ""H"": 1.0}",525.021,#FFFFFF,monoclinic,{47},7.508e-09
Aleksandrovite,KCa7Sn2Li3Si12O36F2,"{""K"": 1.0, ""Ca"": 7.0, ""Sn"": 2.0, ""Li"": 3.0, ""Si"": 12.0, ""O"": 36.0, ""F"": 2.0}",1528.864,#FFFFFF,monoclinic,{23},8.794e-08
Aleksite,PbBi2Te2S2,"{""Pb"": 1.0, ""Bi"": 2.0, ""Te"": 2.0, ""S"": 2.0}",944.48,#708090,hexagonal,{33},2.51e-10
Alexearlite,Hg3(MoO4)S2,"{""Hg"": 3.0, ""Mo"": 1.0, ""O"": 4.0, ""S"": 2.0}",825.836,#FFFFFF,orthorhombic,{},2e-08
Alexkhomyakovite,K6(Ca2Na)(CO3)5Cl·6H2O,"{""K"": 6.0, ""Ca"": 2.0, ""Na"": 1.0, ""C"": 5.0, ""O"": 21.0, ""Cl"": 1.0, ""H"": 12.0}",781.314,#FFFFFF,hexagonal,{35},1.3774e-08
Alexkuznetsovite-(Ce),Ce2Mn(CO3)(Si2O7),"{""Ce"": 2.0, ""Mn"": 1.0, ""C"": 1.0, ""O"": 10.0, ""Si"": 2.0}",563.349,#FFFFFF,monoclinic,{36},1.718e-09
Alexkuznetsovite-(La),La2Mn(CO3)(Si2O7),"{""La"": 2.0, ""Mn"": 1.0, ""C"": 1.0, ""O"": 10.0, ""Si"": 2.0}",560.929,#FFFFFF,monoclinic,{36},1.718e-09
Alflarsenite,NaCa2Be3Si4O13(OH)·2H2O,"{""Na"": 1.0, ""Ca"": 2.0, ""Be"": 3.0, ""Si"": 4.0, ""O"": 16.0, ""H"": 5.0}",503.5466,#FFFFFF,monoclinic,{19},3.4965035e-05
Alforsite,Ba5(PO4)3Cl,"{""Ba"": 5.0, ""P"": 3.0, ""O"": 12.0, ""Cl"": 1.0}",1007.01,#FFFFFF,hexagonal,"{26,51}",1.1812e-08
Alfredcasparite,Sr2TiO(Si2O7),"{""Sr"": 2.0, ""Ti"": 1.0, ""O"": 8.0, ""Si"": 2.0}",407.269,#FFFFFF,tetragonal,{},3e-07
Alfredopetrovite,Al2(Se4+O3)3·6H2O,"{""Al"": 2.0, ""Se"": 3.0, ""O"": 15.0, ""H"": 12.0}",542.958,#FFFFFF,hexagonal,{47},1.5015e-07
Alfredstelznerite,Ca4(H2O)4[B4O4(OH)6]4(H2O)15,"{""Ca"": 4.0, ""H"": 62.0, ""O"": 59.0, ""B"": 16.0}",1339.709,#FFFFFF,orthorhombic,{25},4.7619e-08
Alicewilsonite-(YCe),Na2Sr2YCe(CO3)6·3H2O,"{""Na"": 2.0, ""Sr"": 2.0, ""Y"": 1.0, ""Ce"": 1.0, ""C"": 6.0, ""O"": 21.0, ""H"": 6.0}",864.339,#FFFFFF,triclinic,{35},1.3774e-08
Alicewilsonite-(YLa),Na2Sr2YLa(CO3)6·3H2O,"{""Na"": 2.0, ""Sr"": 2.0, ""Y"": 1.0, ""La"": 1.0, ""C"": 6.0, ""O"": 21.0, ""H"": 6.0}",863.129,#FFFFFF,triclinic,{35},1.3774e-08
Allactite,Mn2+7(AsO4)2(OH)8,"{""Mn"": 7.0, ""As"": 2.0, ""O"": 16.0, ""H"": 8.0}",798.458,#FFFFFF,monoclinic,{32},1.214e-09
Allanite-(Ce),CaCe(Al2Fe2+)[Si2O7][SiO4]O(OH),"{""Ca"": 1.0, ""Ce"": 1.0, ""Al"": 2.0, ""Fe"": 1.0, ""Si"": 3.0, ""O"": 13.0, ""H"": 1.0}",583.257,#556B2F,monoclinic,"{8,19,26,31,34,35,36,40}",5.0954995e-05
Allanite-(La),CaLa(Al2Fe2+)[Si2O7][SiO4]O(OH),"{""Ca"": 1.0, ""La"": 1.0, ""Al"": 2.0, ""Fe"": 1.0, ""Si"": 3.0, ""O"": 13.0, ""H"": 1.0}",582.047,#556B2F,monoclinic,"{8,19,35}",4.1430422e-05
Allanite-(Nd),CaNd(Al2Fe2+)[Si2O7][SiO4]O(OH),"{""Ca"": 1.0, ""Nd"": 1.0, ""Al"": 2.0, ""Fe"": 1.0, ""Si"": 3.0, ""O"": 13.0, ""H"": 1.0}",587.377,#556B2F,monoclinic,{8},6.451613e-06
Allanite-(Sm),CaSm(Al2Fe2+)(Si2O7)(SiO4)O(OH),"{""Ca"": 1.0, ""Sm"": 1.0, ""Al"": 2.0, ""Fe"": 1.0, ""Si"": 3.0, ""O"": 13.0, ""H"": 1.0}",593.497,#556B2F,monoclinic,{},1e-06
Allanite-(Y),CaY(Al2Fe2+)(Si2O7)(SiO4)O(OH),"{""Ca"": 1.0, ""Y"": 1.0, ""Al"": 2.0, ""Fe"": 1.0, ""Si"": 3.0, ""O"": 13.0, ""H"": 1.0}",532.043,#556B2F,monoclinic,"{8,19,34,35}",4.1448152e-05
Allanpringite,Fe3+3(PO4)2(OH)3·5H2O,"{""Fe"": 3.0, ""P"": 2.0, ""O"": 16.0, ""H"": 13.0}",498.571,#556B2F,monoclinic,{47},1.5015e-08
Allantoin,C4H6N4O3,"{""C"": 4.0, ""H"": 6.0, ""N"": 4.0, ""O"": 3.0}",158.117,#FFFFFF,monoclinic,{52},1.38889e-07
Alleghanyite,Mn2+5(SiO4)2(OH)2,"{""Mn"": 5.0, ""Si"": 2.0, ""O"": 10.0, ""H"": 2.0}",492.866,#FFFFFF,monoclinic,"{23,32}",8.9153e-08
Allendeite,Sc4Zr3O12,"{""Sc"": 4.0, ""Zr"": 3.0, ""O"": 12.0}",645.484,#FFFFFF,hexagonal,{3},2.08333e-07
Allochalcoselite,Cu1+Cu2+5PbO2(SeO3)2Cl5,"{""Cu"": 6.0, ""Pb"": 1.0, ""O"": 8.0, ""Se"": 2.0, ""Cl"": 5.0}",1051.66,#FFFFFF,monoclinic,{45},2.3585e-08
Alloclasite,CoAsS,"{""Co"": 1.0, ""As"": 1.0, ""S"": 1.0}",165.915,#FFD700,monoclinic,"{23,33}",3.5427e-08
Almagreraite,CuZnMn4+3O8,"{""Cu"": 1.0, ""Zn"": 1.0, ""Mn"": 3.0, ""O"": 8.0}",421.732,#FFFFFF,orthorhombic,{},5e-08
Almandine,Fe2+3Al2(SiO4)3,"{""Fe"": 3.0, ""Al"": 2.0, ""Si"": 3.0, ""O"": 12.0}",497.742,#556B2F,cubic,"{8,19,26,36,38,40}",9.6877188e-05
Alpeite,Ca4Mn3+2Al2(Mn3+Mg)(SiO4)2(Si3O10)(VO4)(OH)6,"{""Ca"": 4.0, ""Mn"": 3.0, ""Al"": 2.0, ""Mg"": 1.0, ""Si"": 5.0, ""O"": 28.0, ""V"": 1.0, ""H"": 6.0}",1048.782,#FFFFFF,orthorhombic,{32},1.214e-09
Alpersite,Mg(SO4)·7H2O,"{""Mg"": 1.0, ""S"": 1.0, ""O"": 11.0, ""H"": 14.0}",246.466,#FFFFFF,monoclinic,"{45,47,55}",4.232e-09
Alstonite,BaCa(CO3)2,"{""Ba"": 1.0, ""Ca"": 1.0, ""C"": 2.0, ""O"": 6.0}",297.424,#FFFFFF,hexagonal,"{23,32,36}",1.81743e-06
Altaite,PbTe,"{""Pb"": 1.0, ""Te"": 1.0}",334.8,#FFFFFF,cubic,"{6,33}",6.1328e-08
Alterite,Zn2Fe3+4(SO4)4(C2O4)2(OH)4·17H2O,"{""Zn"": 2.0, ""Fe"": 4.0, ""S"": 4.0, ""O"": 45.0, ""C"": 4.0, ""H"": 38.0}",1288.683,#556B2F,monoclinic,{53},1.709e-09
Althupite,AlTh(UO2)7(PO4)4O2(OH)5·15H2O,"{""Al"": 1.0, ""Th"": 1.0, ""U"": 7.0, ""O"": 52.0, ""P"": 4.0, ""H"": 35.0}",2916.356,#FFFFFF,triclinic,{47},1.5015e-08
Altisite,Na3K6Ti2Al2Si8O26Cl3,"{""Na"": 3.0, ""K"": 6.0, ""Ti"": 2.0, ""Al"": 2.0, ""Si"": 8.0, ""O"": 26.0, ""Cl"": 3.0}",1200.26,#FFFFFF,monoclinic,{35},4.132e-09
Aluminite,Al2(SO4)(OH)4·7H2O,"{""Al"": 2.0, ""S"": 1.0, ""O"": 15.0, ""H"": 18.0}",344.153,#FFFFFF,monoclinic,"{21,45,47,50,54}",7.594e-09
Aluminium,Al,"{""Al"": 1.0}",26.982,#FFFFFF,cubic,"{8,9,30,36,38}",4.5150321e-05
Aluminocoquimbite,Al2Fe2(SO4)6(H2O)12·9H2O,"{""Al"": 2.0, ""Fe"": 2.0, ""S"": 6.0, ""O"": 45.0, ""H"": 42.0}",1120.305,#556B2F,hexagonal,"{45,47,55}",4.232e-09
Aluminomagnesiohulsite,Mg2AlO2(BO3),"{""Mg"": 2.0, ""Al"": 1.0, ""O"": 5.0, ""B"": 1.0}",166.397,#FFFFFF,monoclinic,{23},1.758794e-06
Alumino-oxy-rossmanite,Al3Al6(Si5AlO18)(BO3)3(OH)3O,"{""Al"": 10.0, ""Si"": 5.0, ""O"": 31.0, ""B"": 3.0, ""H"": 3.0}",941.668,#FFFFFF,hexagonal,{34},1.773e-08
Aluminopyracmonite,(NH4)3Al(SO4)3,"{""N"": 3.0, ""H"": 12.0, ""Al"": 1.0, ""S"": 3.0, ""O"": 12.0}",369.267,#FFFFFF,hexagonal,"{45,54}",1.326e-09
Aluminosugilite,KNa2Al2Li3Si12O30,"{""K"": 1.0, ""Na"": 2.0, ""Al"": 2.0, ""Li"": 3.0, ""Si"": 12.0, ""O"": 30.0}",976.852,#FFFFFF,hexagonal,"{32,35}",3.8046e-08
Aluminotaipingite-(CeCa),(Ce6Ca3)Al(SiO4)3[SiO3(OH)]4F3,"{""Ce"": 6.0, ""Ca"": 3.0, ""Al"": 1.0, ""Si"": 7.0, ""O"": 28.0, ""H"": 4.0, ""F"": 3.0}",1693.529,#FFFFFF,hexagonal,{},5e-08
Alum-(K),KAl(SO4)2·12H2O,"{""K"": 1.0, ""Al"": 1.0, ""S"": 2.0, ""O"": 20.0, ""H"": 24.0}",474.372,#FFFFFF,cubic,"{45,47,50}",4.207e-09
Alum-(Na),NaAl(SO4)2·12H2O,"{""Na"": 1.0, ""Al"": 1.0, ""S"": 2.0, ""O"": 20.0, ""H"": 24.0}",458.264,#FFFFFF,cubic,"{14,45,47,50,54}",8.341e-09
Alumoedtollite,K2NaCu5AlO2(AsO4)4,"{""K"": 2.0, ""Na"": 1.0, ""Cu"": 5.0, ""Al"": 1.0, ""O"": 18.0, ""As"": 4.0}",1033.568,#FFFFFF,triclinic,{45},2.3585e-08
Alumohydrocalcite,CaAl2(CO3)2(OH)4·4H2O,"{""Ca"": 1.0, ""Al"": 2.0, ""C"": 2.0, ""O"": 14.0, ""H"": 12.0}",354.146,#FFFFFF,triclinic,{47},1.5015e-07
Alumoklyuchevskite,K3Cu2+3AlO2(SO4)4,"{""K"": 3.0, ""Cu"": 3.0, ""Al"": 1.0, ""O"": 18.0, ""S"": 4.0}",751.136,#FFFFFF,monoclinic,{45},4.72e-10
Alumolukrahnite,CaCu2+Al(AsO4)2(OH)(H2O),"{""Ca"": 1.0, ""Cu"": 1.0, ""Al"": 1.0, ""As"": 2.0, ""O"": 10.0, ""H"": 3.0}",443.464,#FFFFFF,triclinic,{},1e-06
Alumotantite,AlTaO4,"{""Al"": 1.0, ""Ta"": 1.0, ""O"": 4.0}",271.928,#FFFFFF,orthorhombic,{34},1.773e-08
Alumovesuvianite,Ca19Al(Al10Mg2)Si18O69(OH)9,"{""Ca"": 19.0, ""Al"": 11.0, ""Mg"": 2.0, ""Si"": 18.0, ""O"": 78.0, ""H"": 9.0}",2869.418,#FFFFFF,tetragonal,"{7,38}",2.26061e-07
Alunite,KAl3(SO4)2(OH)6,"{""K"": 1.0, ""Al"": 3.0, ""S"": 2.0, ""O"": 14.0, ""H"": 6.0}",414.198,#FFFFFF,hexagonal,"{45,46,47,50,54}",8.908e-09
Alunogen,Al2(SO4)3(H2O)12·5H2O,"{""Al"": 2.0, ""S"": 3.0, ""O"": 29.0, ""H"": 34.0}",648.387,#FFFFFF,triclinic,"{45,47,50,54,55}",5.82e-09
Alvanite,Zn2+Al4(V5+O3)2(OH)12·2H2O,"{""Zn"": 1.0, ""Al"": 4.0, ""V"": 2.0, ""O"": 20.0, ""H"": 16.0}",611.3,#FFFFFF,monoclinic,{47},1.5015e-07
Alvesite,NaKZrSi6O15·2H2O,"{""Na"": 1.0, ""K"": 1.0, ""Zr"": 1.0, ""Si"": 6.0, ""O"": 17.0, ""H"": 4.0}",597.837,#FFFFFF,orthorhombic,{},1e-06
Alwilkinsite-(Y),Y(UO2)3(SO4)2O(OH)3(H2O)7·7H2O,"{""Y"": 1.0, ""U"": 3.0, ""O"": 32.0, ""S"": 2.0, ""H"": 31.0}",1410.332,#FFFFFF,orthorhombic,"{47,55}",3.761e-09
Amakinite,Fe(OH)2,"{""Fe"": 1.0, ""O"": 2.0, ""H"": 2.0}",89.859,#8B4513,hexagonal,{6},9.2683e-08
Amamoorite,CaMn2+2Mn3+(Si2O7)O(OH),"{""Ca"": 1.0, ""Mn"": 3.0, ""Si"": 2.0, ""O"": 9.0, ""H"": 1.0}",406.061,#FFFFFF,monoclinic,{32},1.214e-09
Amarantite,Fe3+2O(SO4)2·7H2O,"{""Fe"": 2.0, ""O"": 16.0, ""S"": 2.0, ""H"": 14.0}",445.906,#556B2F,triclinic,{47},3.003e-09
Amarillite,NaFe3+(SO4)2·6H2O,"{""Na"": 1.0, ""Fe"": 1.0, ""S"": 2.0, ""O"": 14.0, ""H"": 12.0}",379.037,#556B2F,monoclinic,{47},3.003e-09
Amaterasuite,Sr4Ti6Si4O23(OH)Cl,"{""Sr"": 4.0, ""Ti"": 6.0, ""Si"": 4.0, ""O"": 24.0, ""H"": 1.0, ""Cl"": 1.0}",1170.456,#FFFFFF,orthorhombic,{},3e-07
Amblygonite,LiAl(PO4)F,"{""Li"": 1.0, ""Al"": 1.0, ""P"": 1.0, ""O"": 4.0, ""F"": 1.0}",147.89,#FFFFFF,triclinic,"{34,47}",8.394e-09
Ameghinite,NaB3O3(OH)4,"{""Na"": 1.0, ""B"": 3.0, ""O"": 7.0, ""H"": 4.0}",171.445,#FFFFFF,monoclinic,{25},4.7619e-08
Amesite,Mg2Al(AlSiO5)(OH)4,"{""Mg"": 2.0, ""Al"": 2.0, ""Si"": 1.0, ""O"": 9.0, ""H"": 4.0}",278.682,#FFFFFF,hexagonal,{40},1.2225705e-05
Amgaite,Tl3+2Te6+O6,"{""Tl"": 2.0, ""Te"": 1.0, ""O"": 6.0}",632.354,#FFFFFF,hexagonal,{33},1.2547e-08
Amicite,K2Na2(Al4Si4O16)·5H2O,"{""K"": 2.0, ""Na"": 2.0, ""Al"": 4.0, ""Si"": 4.0, ""O"": 21.0, ""H"": 10.0}",690.503,#FFFFFF,monoclinic,{35},1.9284e-08
Aminoffite,Ca3(BeOH)2Si3O10,"{""Ca"": 3.0, ""Be"": 2.0, ""O"": 12.0, ""H"": 2.0, ""Si"": 3.0}",416.5174,#FFFFFF,tetragonal,"{23,31,35}",1.800658e-06
Ammineite,CuCl2·2NH3,"{""Cu"": 1.0, ""Cl"": 2.0, ""N"": 2.0, ""H"": 6.0}",168.508,#FFFFFF,orthorhombic,"{45,52}",1.62474e-07
Ammonioalunite,(NH4)Al3(SO4)2(OH)6,"{""N"": 1.0, ""H"": 10.0, ""Al"": 3.0, ""S"": 2.0, ""O"": 14.0}",393.139,#FFFFFF,hexagonal,"{14,49,50,54}",7.463e-09
Ammonioborite,(NH4)3B15O20(OH)8·4H2O,"{""N"": 3.0, ""H"": 28.0, ""B"": 15.0, ""O"": 32.0}",744.363,#FFFFFF,monoclinic,"{25,55,57}",2.89579e-07
Ammoniojarosite,(NH4)Fe3+3(SO4)2(OH)6,"{""N"": 1.0, ""H"": 10.0, ""Fe"": 3.0, ""S"": 2.0, ""O"": 14.0}",479.728,#556B2F,hexagonal,"{50,54,55}",2.345e-09