name,formula,elements,density,color,crystal,pm_ids,gacha_weight
Faizievite,Li6K2Na(Ca6Na)Ti4(Si6O18)2(Si12O30)F2,"{""Li"": 6.0, ""K"": 2.0, ""Na"": 2.0, ""Ca"": 6.0, ""Ti"": 4.0, ""Si"": 24.0, ""O"": 66.0, ""F"": 2.0}",2365.722,#FFFFFF,triclinic,{34},8.87e-10
Falcondoite,Ni4Si6O15(OH)2·6H2O,"{""Ni"": 4.0, ""Si"": 6.0, ""O"": 23.0, ""H"": 14.0}",785.371,#FFFFFF,orthorhombic,"{13,47}",2.99404e-07
Falgarite,K4(VO)3(SO4)5,"{""K"": 4.0, ""V"": 3.0, ""O"": 23.0, ""S"": 5.0}",837.495,#FFFFFF,monoclinic,{54},8.55e-10
Falkmanite,Pb3Sb2S6,"{""Pb"": 3.0, ""Sb"": 2.0, ""S"": 6.0}",1057.48,#708090,monoclinic,{33},2.51e-10
Falottaite,MnC2O4·3H2O,"{""Mn"": 1.0, ""C"": 2.0, ""O"": 7.0, ""H"": 6.0}",197.001,#FFFFFF,orthorhombic,"{47,53}",1.1781e-08
Falsterite,Ca2MgMn2+2Fe2+2Fe3+2Zn4(PO4)8(OH)4(H2O)14,"{""Ca"": 2.0, ""Mg"": 1.0, ""Mn"": 2.0, ""Fe"": 4.0, ""Zn"": 4.0, ""P"": 8.0, ""O"": 50.0, ""H"": 32.0}",1779.235,#556B2F,monoclinic,{47},7.508e-09
Famatinite,Cu3SbS4,"{""Cu"": 3.0, ""Sb"": 1.0, ""S"": 4.0}",440.638,#A9A9A9,tetragonal,{12},1.55e-09
Fanfaniite,Ca4Mn2+Al4(PO4)6(OH)4·12H2O,"{""Ca"": 4.0, ""Mn"": 1.0, ""Al"": 4.0, ""P"": 6.0, ""O"": 40.0, ""H"": 28.0}",1177.206,#FFFFFF,monoclinic,{34},8.87e-10
Fangite,Tl3AsS4,"{""Tl"": 3.0, ""As"": 1.0, ""S"": 4.0}",816.302,#FFD700,orthorhombic,{33},2.51e-10
Fanguangite,(MoO2)(PO3OH)·4H2O,"{""Mo"": 1.0, ""O"": 10.0, ""P"": 1.0, ""H"": 9.0}",295.986,#FFFFFF,triclinic,{},1e-07
Farneseite,Na46Ca10(Si42Al42O168)(SO4)12·6H2O,"{""Na"": 46.0, ""Ca"": 10.0, ""Si"": 42.0, ""Al"": 42.0, ""O"": 222.0, ""S"": 12.0, ""H"": 12.0}",7719.728,#FFFFFF,hexagonal,{45},4.72e-10
Farringtonite,Mg3(PO4)2,"{""Mg"": 3.0, ""P"": 2.0, ""O"": 8.0}",262.855,#FFFFFF,monoclinic,"{5,6}",1.5516e-08
Fassinaite,Pb2(CO3)(S2O3),"{""Pb"": 2.0, ""C"": 1.0, ""O"": 6.0, ""S"": 2.0}",586.525,#FFFFFF,orthorhombic,"{47,56}",4.402e-09
Faustite,ZnAl6(PO4)4(OH)8·4H2O,"{""Zn"": 1.0, ""Al"": 6.0, ""P"": 4.0, ""O"": 28.0, ""H"": 16.0}",815.268,#FFFFFF,triclinic,{47},1.5015e-08
Favreauite,PbBiCu6O4(SeO3)4(OH)·H2O,"{""Pb"": 1.0, ""Bi"": 1.0, ""Cu"": 6.0, ""O"": 18.0, ""Se"": 4.0, ""H"": 3.0}",1404.346,#FFFFFF,tetragonal,{47},1.5015e-07
Fayalite,Fe2+2(SiO4),"{""Fe"": 2.0, ""Si"": 1.0, ""O"": 4.0}",203.771,#8B4513,orthorhombic,"{6,19,23,34,40,57}",8.815774e-05
Fedorovskite,Ca2Mg2B4O7(OH)6,"{""Ca"": 2.0, ""Mg"": 2.0, ""B"": 4.0, ""O"": 13.0, ""H"": 6.0}",386.041,#FFFFFF,orthorhombic,{31},2.809e-08
Fedotovite,K2Cu3O(SO4)3,"{""K"": 2.0, ""Cu"": 3.0, ""O"": 13.0, ""S"": 3.0}",573.001,#FFFFFF,monoclinic,{45},4.72e-10
Fehrite,MgCu4(SO4)2(OH)6·6H2O,"{""Mg"": 1.0, ""Cu"": 4.0, ""S"": 2.0, ""O"": 20.0, ""H"": 18.0}",680.733,#FFFFFF,monoclinic,{47},3.003e-09
Feiite,Fe2+2(Fe2+Ti4+)O5,"{""Fe"": 3.0, ""Ti"": 1.0, ""O"": 5.0}",295.397,#8B4513,orthorhombic,{6},1.4634e-08
Feinglosite,Pb2Zn(AsO4)2·H2O,"{""Pb"": 2.0, ""Zn"": 1.0, ""As"": 2.0, ""O"": 9.0, ""H"": 2.0}",775.631,#FFFFFF,monoclinic,{47},1.5015e-07
Feitknechtite,Mn3+O(OH),"{""Mn"": 1.0, ""O"": 2.0, ""H"": 1.0}",87.944,#FFB6C1,monoclinic,{47},7.508e-09
Felbertalite,Cu2Pb6Bi8S19,"{""Cu"": 2.0, ""Pb"": 6.0, ""Bi"": 8.0, ""S"": 19.0}",3651.272,#708090,monoclinic,"{31,33}",8.13e-10
Felsobanyaite,Al4(SO4)(OH)10·4H2O,"{""Al"": 4.0, ""S"": 1.0, ""O"": 18.0, ""H"": 18.0}",446.114,#FFFFFF,monoclinic,{47},3.003e-09
Fenaksite,KNaFe2+Si4O10,"{""K"": 1.0, ""Na"": 1.0, ""Fe"": 1.0, ""Si"": 4.0, ""O"": 10.0}",390.263,#556B2F,triclinic,{35},1.9284e-08
Fencooperite,Ba6Fe3+3Si8O23(CO3)2Cl3·H2O,"{""Ba"": 6.0, ""Fe"": 3.0, ""Si"": 8.0, ""O"": 30.0, ""C"": 2.0, ""Cl"": 3.0, ""H"": 2.0}",1828.553,#556B2F,hexagonal,{23},1.758794e-06
Fengruiite,[Ag6Sb2S7][Ag9CuS2Te2],"{""Ag"": 15.0, ""Sb"": 2.0, ""S"": 9.0, ""Cu"": 1.0, ""Te"": 2.0}",2468.856,#A9A9A9,hexagonal,{},2e-08
Feodosiyite,Cu11Mg2Cl18(OH)8·16H2O,"{""Cu"": 11.0, ""Mg"": 2.0, ""Cl"": 18.0, ""O"": 24.0, ""H"": 40.0}",1810.012,#FFFFFF,monoclinic,{47},1.5015e-07
Ferberite,Fe2+(WO4),"{""Fe"": 1.0, ""W"": 1.0, ""O"": 4.0}",303.681,#8B4513,monoclinic,"{26,31,34}",8.582e-08
Ferdowsiite,Ag8(Sb5As3)S16,"{""Ag"": 8.0, ""Sb"": 5.0, ""As"": 3.0, ""S"": 16.0}",2209.486,#FFD700,monoclinic,{33},2.51e-10
Fergusonite-(Y),YNbO4,"{""Y"": 1.0, ""Nb"": 1.0, ""O"": 4.0}",245.808,#FFFFFF,tetragonal,"{26,34}",5.773e-08
Fermiite,Na4(UO2)(SO4)3·3H2O,"{""Na"": 4.0, ""U"": 1.0, ""O"": 17.0, ""S"": 3.0, ""H"": 6.0}",704.201,#FFFFFF,orthorhombic,"{47,55}",3.761e-09
Feroxyhyte,Fe3+O(OH),"{""Fe"": 1.0, ""O"": 2.0, ""H"": 1.0}",88.851,#8B4513,hexagonal,"{17,24,42,47,48}",2.448863e-06
Ferrarisite,Ca5(AsO3OH)2(AsO4)2·9H2O,"{""Ca"": 5.0, ""As"": 4.0, ""O"": 25.0, ""H"": 20.0}",920.213,#FFFFFF,triclinic,"{47,55}",1.88029e-07
Ferriakasakaite-(Ce),CaCeFe3+AlMn2+(Si2O7)(SiO4)O(OH),"{""Ca"": 1.0, ""Ce"": 1.0, ""Fe"": 1.0, ""Al"": 1.0, ""Mn"": 1.0, ""Si"": 3.0, ""O"": 13.0, ""H"": 1.0}",611.213,#556B2F,monoclinic,{32},1.214e-09
Ferriakasakaite-(La),CaLaFe3+AlMn2+(Si2O7)(SiO4)O(OH),"{""Ca"": 1.0, ""La"": 1.0, ""Fe"": 1.0, ""Al"": 1.0, ""Mn"": 1.0, ""Si"": 3.0, ""O"": 13.0, ""H"": 1.0}",610.003,#556B2F,monoclinic,{32},1.214e-09
Ferriallanite-(Ce),CaCe(Fe3+AlFe2+)[Si2O7][SiO4]O(OH),"{""Ca"": 1.0, ""Ce"": 1.0, ""Fe"": 2.0, ""Al"": 1.0, ""Si"": 3.0, ""O"": 13.0, ""H"": 1.0}",612.12,#556B2F,monoclinic,"{8,19,34,35}",4.1448152e-05
Ferriallanite-(La),CaLa(Fe3+AlFe2+)[Si2O7][SiO4]O(OH),"{""Ca"": 1.0, ""La"": 1.0, ""Fe"": 2.0, ""Al"": 1.0, ""Si"": 3.0, ""O"": 13.0, ""H"": 1.0}",610.91,#556B2F,monoclinic,"{8,19,34,35}",4.1448152e-05
Ferriandrosite-(Ce),MnCe(Fe3+AlMn2+)(Si2O7)(SiO4)O(OH),"{""Mn"": 2.0, ""Ce"": 1.0, ""Fe"": 1.0, ""Al"": 1.0, ""Si"": 3.0, ""O"": 13.0, ""H"": 1.0}",626.073,#556B2F,monoclinic,{},5e-08
Ferriandrosite-(La),MnLaFe3+AlMn2+(Si2O7)(SiO4)O(OH),"{""Mn"": 2.0, ""La"": 1.0, ""Fe"": 1.0, ""Al"": 1.0, ""Si"": 3.0, ""O"": 13.0, ""H"": 1.0}",624.863,#556B2F,monoclinic,{32},1.214e-09
Ferribushmakinite,Pb2Fe3+(PO4)(VO4)(OH),"{""Pb"": 2.0, ""Fe"": 1.0, ""P"": 1.0, ""O"": 9.0, ""V"": 1.0, ""H"": 1.0}",697.16,#556B2F,monoclinic,{32},2.427e-09
Ferricoronadite,Pb(Mn4+6Fe3+2)O16,"{""Pb"": 1.0, ""Mn"": 6.0, ""Fe"": 2.0, ""O"": 16.0}",904.502,#556B2F,tetragonal,{32},1.214e-09
Ferri-fluoro-katophorite,Na(NaCa)(Mg4Fe3+)(Si7Al)O22F2,"{""Na"": 2.0, ""Ca"": 1.0, ""Mg"": 4.0, ""Fe"": 1.0, ""Si"": 7.0, ""Al"": 1.0, ""O"": 22.0, ""F"": 2.0}",852.674,#556B2F,monoclinic,"{8,40}",7.928e-07
Ferri-fluoro-leakeite,NaNa2(Mg2Fe3+2Li)Si8O22F2,"{""Na"": 3.0, ""Mg"": 2.0, ""Fe"": 2.0, ""Li"": 1.0, ""Si"": 8.0, ""O"": 22.0, ""F"": 2.0}",850.864,#556B2F,monoclinic,{35},6.89e-10
Ferrihollandite,Ba(Mn4+6Fe3+2)O16,"{""Ba"": 1.0, ""Mn"": 6.0, ""Fe"": 2.0, ""O"": 16.0}",834.632,#556B2F,monoclinic,{32},1.214e-09
Ferrihydrite,Fe3+5O7(OH),"{""Fe"": 5.0, ""O"": 8.0, ""H"": 1.0}",408.225,#8B4513,hexagonal,"{6,14,26,42,47,48,49,55}",2.618439e-06
Ferri-kaersutite,NaCa2(Mg3Fe3+Ti)(Si6Al2)O22O2,"{""Na"": 1.0, ""Ca"": 2.0, ""Mg"": 3.0, ""Fe"": 1.0, ""Ti"": 1.0, ""Si"": 6.0, ""Al"": 2.0, ""O"": 24.0}",886.223,#556B2F,monoclinic,"{35,40}",2.825449e-06
Ferri-katophorite,Na(NaCa)(Mg4Fe3+)(Si7Al)O22(OH)2,"{""Na"": 2.0, ""Ca"": 1.0, ""Mg"": 4.0, ""Fe"": 1.0, ""Si"": 7.0, ""Al"": 1.0, ""O"": 24.0, ""H"": 2.0}",848.692,#556B2F,monoclinic,{35},1.7906e-08
Ferri-leakeite,NaNa2(Mg2Fe3+2Li)Si8O22(OH)2,"{""Na"": 3.0, ""Mg"": 2.0, ""Fe"": 2.0, ""Li"": 1.0, ""Si"": 8.0, ""O"": 24.0, ""H"": 2.0}",846.882,#556B2F,monoclinic,{32},2.4272e-08
Ferrilotharmeyerite,CaZnFe3+(AsO4)2(OH)·H2O,"{""Ca"": 1.0, ""Zn"": 1.0, ""Fe"": 1.0, ""As"": 2.0, ""O"": 10.0, ""H"": 3.0}",474.161,#556B2F,monoclinic,{47},1.5015e-07
Ferrimolybdite,Fe3+2(Mo6+O4)3·7H2O,"{""Fe"": 2.0, ""Mo"": 3.0, ""O"": 19.0, ""H"": 14.0}",717.633,#556B2F,unknown,{47},1.5015e-07
Ferrimuirite,Ba10(Ca2Fe3+2)[Si8O24]O2Cl10,"{""Ba"": 10.0, ""Ca"": 2.0, ""Fe"": 2.0, ""Si"": 8.0, ""O"": 26.0, ""Cl"": 10.0}",2560.3,#556B2F,tetragonal,{},1e-06
Ferrinatrite,Na3Fe3+(SO4)3·3H2O,"{""Na"": 3.0, ""Fe"": 1.0, ""S"": 3.0, ""O"": 15.0, ""H"": 6.0}",467.028,#556B2F,hexagonal,"{45,47}",3.475e-09
Ferri-obertiite,NaNa2(Mg3Fe3+Ti)Si8O22O2,"{""Na"": 3.0, ""Mg"": 3.0, ""Fe"": 1.0, ""Ti"": 1.0, ""Si"": 8.0, ""O"": 24.0}",854.253,#556B2F,monoclinic,{10},2.8037e-08
Ferri-pedrizite,NaLi2(Mg2Fe3+2Li)Si8O22(OH)2,"{""Na"": 1.0, ""Li"": 3.0, ""Mg"": 2.0, ""Fe"": 2.0, ""Si"": 8.0, ""O"": 24.0, ""H"": 2.0}",814.782,#556B2F,monoclinic,"{22,34}",5.8216e-08
Ferriperboeite-(Ce),(CaCe3)(Fe3+Al2Fe2+)(Si2O7)(SiO4)3O(OH)2,"{""Ca"": 1.0, ""Ce"": 3.0, ""Fe"": 2.0, ""Al"": 2.0, ""Si"": 5.0, ""O"": 22.0, ""H"": 2.0}",1120.511,#556B2F,monoclinic,{34},1.773e-08
Ferriperboeite-(La),(CaLa3)(Fe3+Al2Fe2+)[Si2O7][SiO4]3O(OH)2,"{""Ca"": 1.0, ""La"": 3.0, ""Fe"": 2.0, ""Al"": 2.0, ""Si"": 5.0, ""O"": 22.0, ""H"": 2.0}",1116.881,#556B2F,monoclinic,{34},1.773e-08
Ferriphoxite,[(NH4)2K(H2O)][Fe3+(HPO4)2(C2O4)],"{""N"": 2.0, ""H"": 12.0, ""K"": 1.0, ""O"": 13.0, ""Fe"": 1.0, ""P"": 2.0, ""C"": 2.0}",429.01,#556B2F,monoclinic,{},1e-07
Ferriprehnite,Ca2Fe3+(AlSi3)O10(OH)2,"{""Ca"": 2.0, ""Fe"": 1.0, ""Al"": 1.0, ""Si"": 3.0, ""O"": 12.0, ""H"": 2.0}",441.242,#556B2F,orthorhombic,{10},1.21495e-07
Ferripyrophyllite,Fe3+Si2O5(OH),"{""Fe"": 1.0, ""Si"": 2.0, ""O"": 6.0, ""H"": 1.0}",209.017,#556B2F,monoclinic,"{17,47}",6.57834e-07
Ferrisanidine,K(Fe3+Si3O8),"{""K"": 1.0, ""Fe"": 1.0, ""Si"": 3.0, ""O"": 8.0}",307.19,#556B2F,monoclinic,"{35,45}",5.2303e-08
Ferristrunzite,Fe3+Fe3+2(PO4)2(OH)3·5H2O,"{""Fe"": 3.0, ""P"": 2.0, ""O"": 16.0, ""H"": 13.0}",498.571,#556B2F,triclinic,{47},1.5015e-08
Ferrisymplesite,Fe3+3(AsO4)2(OH)3·5H2O,"{""Fe"": 3.0, ""As"": 2.0, ""O"": 16.0, ""H"": 13.0}",586.467,#556B2F,unknown,{47},1.5015e-07
Ferri-taramite,Na(NaCa)(Mg3Fe3+2)(Si6Al2)O22(OH)2,"{""Na"": 2.0, ""Ca"": 1.0, ""Mg"": 3.0, ""Fe"": 2.0, ""Si"": 6.0, ""Al"": 2.0, ""O"": 24.0, ""H"": 2.0}",879.129,#556B2F,monoclinic,{31},3.6517e-08
Ferrivauxite,Fe3+Al2(PO4)2(OH)3·5H2O,"{""Fe"": 1.0, ""Al"": 2.0, ""P"": 2.0, ""O"": 16.0, ""H"": 13.0}",440.845,#556B2F,triclinic,{47},1.5015e-08
Ferroakermanite,Ca2FeSi2O7,"{""Ca"": 2.0, ""Fe"": 1.0, ""Si"": 2.0, ""O"": 7.0}",304.164,#556B2F,tetragonal,{},1.3e-06
Ferroalluaudite,NaFe2+Fe3+2(PO4)3,"{""Na"": 1.0, ""Fe"": 3.0, ""P"": 3.0, ""O"": 12.0}",475.435,#556B2F,monoclinic,"{31,34}",4.582e-09
Ferroaluminoceladonite,KFe2+AlSi4O10(OH)2,"{""K"": 1.0, ""Fe"": 1.0, ""Al"": 1.0, ""Si"": 4.0, ""O"": 12.0, ""H"": 2.0}",428.269,#556B2F,monoclinic,"{16,22,47}",4.35565e-07
Ferroberaunite,Fe2+Fe3+5(PO4)4(OH)5·6H2O,"{""Fe"": 6.0, ""P"": 4.0, ""O"": 27.0, ""H"": 17.0}",908.075,#556B2F,monoclinic,{47},1.5015e-08
Ferro-bosiite,NaFe3+3(Al4Fe2+2)(Si6O18)(BO3)3(OH)3O,"{""Na"": 1.0, ""Fe"": 5.0, ""Al"": 4.0, ""Si"": 6.0, ""O"": 31.0, ""B"": 3.0, ""H"": 3.0}",1110.076,#556B2F,hexagonal,{},1e-06
Ferrobustamite,CaFe2+Si2O6,"{""Ca"": 1.0, ""Fe"": 1.0, ""Si"": 2.0, ""O"": 6.0}",248.087,#556B2F,triclinic,{31},3.6517e-08
Ferrocarpholite,Fe2+Al2Si2O6(OH)4,"{""Fe"": 1.0, ""Al"": 2.0, ""Si"": 2.0, ""O"": 10.0, ""H"": 4.0}",330.001,#556B2F,orthorhombic,{39},2.71429e-07
Ferroceladonite,KFe2+Fe3+Si4O10(OH)2,"{""K"": 1.0, ""Fe"": 2.0, ""Si"": 4.0, ""O"": 12.0, ""H"": 2.0}",457.132,#556B2F,monoclinic,"{16,22,47}",4.35565e-07
Ferrodimolybdenite,FeMo2S4,"{""Fe"": 1.0, ""Mo"": 2.0, ""S"": 4.0}",375.985,#DAA520,monoclinic,{},2e-08
Ferro-edenite,NaCa2Fe2+5(Si7Al)O22(OH)2,"{""Na"": 1.0, ""Ca"": 2.0, ""Fe"": 5.0, ""Si"": 7.0, ""Al"": 1.0, ""O"": 24.0, ""H"": 2.0}",991.94,#556B2F,monoclinic,"{8,19,20,26,34,35,37,40}",6.6545489e-05
Ferroefremovite,(NH4)2Fe2+2(SO4)3,"{""N"": 2.0, ""H"": 8.0, ""Fe"": 2.0, ""S"": 3.0, ""O"": 12.0}",435.936,#556B2F,cubic,{45},4.72e-10
Ferroericssonite,BaFe2+2Fe3+(Si2O7)O(OH),"{""Ba"": 1.0, ""Fe"": 3.0, ""Si"": 2.0, ""O"": 9.0, ""H"": 1.0}",506.034,#556B2F,monoclinic,{32},2.4272e-08
Ferro-ferri-fluoro-leakeite,NaNa2(Fe2+2Fe3+2Li)Si8O22F2,"{""Na"": 3.0, ""Fe"": 4.0, ""Li"": 1.0, ""Si"": 8.0, ""O"": 22.0, ""F"": 2.0}",913.944,#556B2F,monoclinic,"{22,35}",2.713e-09
Ferro-ferri-katophorite,Na(NaCa)(Fe2+4Fe3+)(Si7Al)O22(OH)2,"{""Na"": 2.0, ""Ca"": 1.0, ""Fe"": 5.0, ""Si"": 7.0, ""Al"": 1.0, ""O"": 24.0, ""H"": 2.0}",974.852,#556B2F,monoclinic,"{31,35}",5.4423e-08
Ferro-ferri-nyboite,NaNa2(Fe2+3Fe3+2)(Si7Al)O22(OH)2,"{""Na"": 3.0, ""Fe"": 5.0, ""Si"": 7.0, ""Al"": 1.0, ""O"": 24.0, ""H"": 2.0}",957.764,#556B2F,monoclinic,"{17,35,36}",4.64012e-07
Ferro-ferri-obertiite,NaNa2(Fe2+3Fe3+Ti)Si8O22O2,"{""Na"": 3.0, ""Fe"": 4.0, ""Ti"": 1.0, ""Si"": 8.0, ""O"": 24.0}",948.873,#556B2F,monoclinic,{10},2.8037e-08
Ferro-ferri-pedrizite,NaLi2(Fe2+2Fe3+2Li)Si8O22(OH)2,"{""Na"": 1.0, ""Li"": 3.0, ""Fe"": 4.0, ""Si"": 8.0, ""O"": 24.0, ""H"": 2.0}",877.862,#556B2F,monoclinic,"{22,34}",5.8216e-08
Ferrofettelite,[Ag6As2S7][Ag10FeAs2S8],"{""Ag"": 16.0, ""As"": 4.0, ""S"": 15.0, ""Fe"": 1.0}",2562.353,#DAA520,monoclinic,{33},2.51e-10
Ferro-fluoro-edenite,NaCa2Fe2+5(Si7AlO22)F2,"{""Na"": 1.0, ""Ca"": 2.0, ""Fe"": 5.0, ""Si"": 7.0, ""Al"": 1.0, ""O"": 22.0, ""F"": 2.0}",995.922,#556B2F,monoclinic,{9},3.937e-09
Ferro-fluoro-pedrizite,NaLi2(Fe2+2Al2Li)Si8O22F2,"{""Na"": 1.0, ""Li"": 3.0, ""Fe"": 2.0, ""Al"": 2.0, ""Si"": 8.0, ""O"": 22.0, ""F"": 2.0}",824.118,#556B2F,monoclinic,"{22,34}",2.911e-09
Ferrohexahydrite,Fe2+(SO4)·6H2O,"{""Fe"": 1.0, ""S"": 1.0, ""O"": 10.0, ""H"": 12.0}",259.991,#556B2F,unknown,"{25,45,47}",4.427e-09
Ferroinnelite,Ba4Ti2Na(NaFe2+)Ti(Si2O7)2[(SO4)(PO4)]O2[O(OH)],"{""Ba"": 4.0, ""Ti"": 3.0, ""Na"": 2.0, ""Fe"": 1.0, ""Si"": 4.0, ""O"": 26.0, ""S"": 1.0, ""P"": 1.0, ""H"": 1.0}",1387.102,#556B2F,triclinic,{},2e-08
Ferro-katophorite,Na(NaCa)(Fe2+4Al)(Si7Al)O22(OH)2,"{""Na"": 2.0, ""Ca"": 1.0, ""Fe"": 4.0, ""Al"": 2.0, ""Si"": 7.0, ""O"": 24.0, ""H"": 2.0}",945.989,#556B2F,monoclinic,"{35,39}",2.03621e-07
Ferrokesterite,Cu2FeSnS4,"{""Cu"": 2.0, ""Fe"": 1.0, ""Sn"": 1.0, ""S"": 4.0}",429.887,#DAA520,tetragonal,{12},1.55e-09
Ferrokinoshitalite,BaFe2+3(Si2Al2)O10(OH)2,"{""Ba"": 1.0, ""Fe"": 3.0, ""Si"": 2.0, ""Al"": 2.0, ""O"": 12.0, ""H"": 2.0}",609.003,#556B2F,monoclinic,{31},2.809e-08
Ferrolaueite,Fe2+Fe3+2(PO4)2(OH)2·8H2O,"{""Fe"": 3.0, ""P"": 2.0, ""O"": 18.0, ""H"": 18.0}",535.609,#556B2F,triclinic,{47},1.5015e-08
Ferromerrillite,Ca9NaFe2+(PO4)7,"{""Ca"": 9.0, ""Na"": 1.0, ""Fe"": 1.0, ""P"": 7.0, ""O"": 28.0}",1104.327,#556B2F,unknown,{6},4.878e-09
Ferronickelplatinum,Pt2FeNi,"{""Pt"": 2.0, ""Fe"": 1.0, ""Ni"": 1.0}",504.698,#7FFF00,tetragonal,"{7,26,37,38}",2.87967e-07
Ferronordite-(Ce),Na3SrCeFe2+Si6O17,"{""Na"": 3.0, ""Sr"": 1.0, ""Ce"": 1.0, ""Fe"": 1.0, ""Si"": 6.0, ""O"": 17.0}",793.048,#556B2F,orthorhombic,{35},1.3774e-08
Ferronordite-(La),Na3SrLaFe2+Si6O17,"{""Na"": 3.0, ""Sr"": 1.0, ""La"": 1.0, ""Fe"": 1.0, ""Si"": 6.0, ""O"": 17.0}",791.838,#556B2F,orthorhombic,{35},1.3774e-08
Ferro-papikeite,NaFe2+2(Fe2+3Al2)(Si5Al3)O22(OH)2,"{""Na"": 1.0, ""Fe"": 5.0, ""Al"": 5.0, ""Si"": 5.0, ""O"": 24.0, ""H"": 2.0}",963.542,#556B2F,orthorhombic,{40},1.7868339e-05
Ferro-pargasite,NaCa2(Fe2+4Al)(Si6Al2)O22(OH)2,"{""Na"": 1.0, ""Ca"": 2.0, ""Fe"": 4.0, ""Al"": 3.0, ""Si"": 6.0, ""O"": 24.0, ""H"": 2.0}",961.974,#556B2F,monoclinic,"{8,10,26,35,40}",2.0804204e-05
Ferro-pedrizite,NaLi2(Fe2+2Al2Li)Si8O22(OH)2,"{""Na"": 1.0, ""Li"": 3.0, ""Fe"": 2.0, ""Al"": 2.0, ""Si"": 8.0, ""O"": 24.0, ""H"": 2.0}",820.136,#556B2F,monoclinic,"{22,34}",5.8216e-08
Ferroqingheiite,Na2Fe2+MgAl(PO4)3,"{""Na"": 2.0, ""Fe"": 1.0, ""Mg"": 1.0, ""Al"": 1.0, ""P"": 3.0, ""O"": 12.0}",438.022,#556B2F,monoclinic,{34},1.773e-09
Ferrorhodonite,CaMn3Fe(Si5O15),"{""Ca"": 1.0, ""Mn"": 3.0, ""Fe"": 1.0, ""Si"": 5.0, ""O"": 15.0}",641.147,#556B2F,triclinic,"{22,32,40}",4.73457e-07
Ferro-richterite,Na(NaCa)Fe2+5Si8O22(OH)2,"{""Na"": 2.0, ""Ca"": 1.0, ""Fe"": 5.0, ""Si"": 8.0, ""O"": 24.0, ""H"": 2.0}",975.955,#556B2F,unknown,{19},4.5454545e-05
Ferroselite,FeSe2,"{""Fe"": 1.0, ""Se"": 2.0}",213.787,#8B4513,orthorhombic,"{33,53}",9.8017e-08
Ferrosilite,Fe2+2Si2O6,"{""Fe"": 2.0, ""Si"": 2.0, ""O"": 6.0}",263.854,#8B4513,monoclinic,"{19,20,31,35,40,50,54}",8.4954462e-05
Ferroskutterudite,FeAs3,"{""Fe"": 1.0, ""As"": 3.0}",280.611,#8B4513,cubic,"{33,36,38}",1.39504e-07
Ferrostalderite,CuFe2TlAs2S6,"{""Cu"": 1.0, ""Fe"": 2.0, ""Tl"": 1.0, ""As"": 2.0, ""S"": 6.0}",721.82,#DAA520,tetragonal,{33},2.51e-10
Ferrostrunzite,Fe2+Fe3+2(PO4)2(OH)2·6H2O,"{""Fe"": 3.0, ""P"": 2.0, ""O"": 16.0, ""H"": 14.0}",499.579,#556B2F,triclinic,"{34,47}",1.6788e-08
Ferrotaaffeite-6N3S,BeFe2+2Al6O12,"{""Be"": 1.0, ""Fe"": 2.0, ""Al"": 6.0, ""O"": 12.0}",474.5822,#556B2F,hexagonal,{34},1.773e-08
Ferro-taramite,Na(NaCa)(Fe2+3Al2)(Si6Al2)O22(OH)2,"{""Na"": 2.0, ""Ca"": 1.0, ""Fe"": 3.0, ""Al"": 4.0, ""Si"": 6.0, ""O"": 24.0, ""H"": 2.0}",916.023,#556B2F,monoclinic,{39},1.85714e-07
Ferrotitanowodginite,Fe2+TiTa2O8,"{""Fe"": 1.0, ""Ti"": 1.0, ""Ta"": 2.0, ""O"": 8.0}",593.604,#556B2F,monoclinic,{34},5.319e-09
Ferrotorryweiserite,Rh5Fe10S16,"{""Rh"": 5.0, ""Fe"": 10.0, ""S"": 16.0}",1585.96,#DAA520,hexagonal,{33},2.51e-10
Ferrotychite,Na6Fe2+2(CO3)4(SO4),"{""Na"": 6.0, ""Fe"": 2.0, ""C"": 4.0, ""O"": 16.0, ""S"": 1.0}",585.718,#556B2F,cubic,{35},2.75e-10
Ferrovorontsovite,(Fe5Cu)TlAs4S12,"{""Fe"": 5.0, ""Cu"": 1.0, ""Tl"": 1.0, ""As"": 4.0, ""S"": 12.0}",1231.559,#DAA520,cubic,{33},2.51e-10
Ferrowodginite,Fe2+Sn4+Ta2O8,"{""Fe"": 1.0, ""Sn"": 1.0, ""Ta"": 2.0, ""O"": 8.0}",664.447,#556B2F,monoclinic,{34},1.773e-08
Ferrowyllieite,NaNaFe2+(Fe2+Al)(PO4)3,"{""Na"": 2.0, ""Fe"": 2.0, ""Al"": 1.0, ""P"": 3.0, ""O"": 12.0}",469.562,#556B2F,monoclinic,{34},1.773e-09
Ferruccite,NaBF4,"{""Na"": 1.0, ""B"": 1.0, ""F"": 4.0}",109.792,#FFFFFF,orthorhombic,{45},1.179e-09
Fersmite,CaNb2O6,"{""Ca"": 1.0, ""Nb"": 2.0, ""O"": 6.0}",321.884,#FFFFFF,orthorhombic,"{35,36}",4.8138e-08
Feruvite,CaFe2+3(Al5Mg)(Si6O18)(BO3)3(OH)3(OH),"{""Ca"": 1.0, ""Fe"": 3.0, ""Al"": 5.0, ""Mg"": 1.0, ""Si"": 6.0, ""O"": 31.0, ""B"": 3.0, ""H"": 4.0}",1067.769,#556B2F,hexagonal,"{23,34,40}",1.1180913e-05
Fervanite,Fe3+4V5+4O16·5H2O,"{""Fe"": 4.0, ""V"": 4.0, ""O"": 21.0, ""H"": 10.0}",773.207,#556B2F,unknown,{47},1.5015e-07
Fettelite,[Ag6As2S7][Ag10HgAs2S8],"{""Ag"": 16.0, ""As"": 4.0, ""S"": 15.0, ""Hg"": 1.0}",2707.098,#FFD700,hexagonal,{33},2.51e-10
Fianelite,Mn2+2V2O7·2H2O,"{""Mn"": 2.0, ""V"": 2.0, ""O"": 9.0, ""H"": 4.0}",359.783,#FFFFFF,monoclinic,"{32,47}",8.721e-09
Fibroferrite,Fe3+(SO4)(OH)·5H2O,"{""Fe"": 1.0, ""S"": 1.0, ""O"": 10.0, ""H"": 11.0}",258.983,#556B2F,hexagonal,"{25,45,47}",4.427e-09
Fichtelite,C19H34,"{""C"": 19.0, ""H"": 34.0}",262.481,#FFFFFF,monoclinic,"{17,53}",2.81549e-07
Fiedlerite,Pb3Cl4F(OH)·H2O,"{""Pb"": 3.0, ""Cl"": 4.0, ""F"": 1.0, ""O"": 2.0, ""H"": 3.0}",817.42,#FFFFFF,monoclinic,"{47,56}",1.1004e-08
Fiemmeite,Cu2(C2O4)(OH)2·2H2O,"{""Cu"": 2.0, ""C"": 2.0, ""O"": 8.0, ""H"": 6.0}",285.154,#FFFFFF,monoclinic,"{50,53}",1.221e-07
Fillowite,Na3CaMn2+11(PO4)9,"{""Na"": 3.0, ""Ca"": 1.0, ""Mn"": 11.0, ""P"": 9.0, ""O"": 36.0}",1568.096,#FFFFFF,hexagonal,{34},8.87e-10
Finchite,Sr(UO2)2(V2O8)·5H2O,"{""Sr"": 1.0, ""U"": 2.0, ""O"": 17.0, ""V"": 2.0, ""H"": 10.0}",947.627,#FFFFFF,orthorhombic,{47},1.5015e-07
Finescreekite,[Pb4(OH)4](S2O3)2,"{""Pb"": 4.0, ""O"": 10.0, ""H"": 4.0, ""S"": 4.0}",1121.062,#FFFFFF,orthorhombic,{47},3.003e-09
Fingerite,Cu11O2(VO4)6,"{""Cu"": 11.0, ""O"": 26.0, ""V"": 6.0}",1420.632,#00BFFF,triclinic,{45},2.3585e-08
Finnemanite,Pb5(As3+O3)3Cl,"{""Pb"": 5.0, ""As"": 3.0, ""O"": 9.0, ""Cl"": 1.0}",1440.207,#FFFFFF,hexagonal,"{32,47}",1.74422e-07
Fischesserite,Ag3AuSe2,"{""Ag"": 3.0, ""Au"": 1.0, ""Se"": 2.0}",678.522,#FFD700,cubic,"{23,33}",1.771341e-06
Fizelyite,Ag5Pb14Sb21S48,"{""Ag"": 5.0, ""Pb"": 14.0, ""Sb"": 21.0, ""S"": 48.0}",7535.99,#708090,monoclinic,{33},2.51e-10
Flaggite,Pb4Cu2+4Te6+2(SO4)2O11(OH)2(H2O),"{""Pb"": 4.0, ""Cu"": 4.0, ""Te"": 2.0, ""S"": 2.0, ""O"": 22.0, ""H"": 4.0}",1758.314,#FFFFFF,triclinic,{47},3.003e-09
Flagstaffite,C10H22O3,"{""C"": 10.0, ""H"": 22.0, ""O"": 3.0}",190.283,#FFFFFF,orthorhombic,{53},8.547e-08
Fleetite,Cu2RhIrSb2,"{""Cu"": 2.0, ""Rh"": 1.0, ""Ir"": 1.0, ""Sb"": 2.0}",665.742,#FFFFFF,cubic,"{26,33}",5.2547e-08