name,formula,elements,density,color,crystal_system,dna
Jeffbenite,Mg3Al2Si3O12,"{""Mg"": 3.0, ""Al"": 2.0, ""Si"": 3.0, ""O"": 12.0}",403.16,#FFFFFF,tetragonal,"{""system"": ""tetragonal"", ""scale"": [1.0, 1.0, 1.4], ""optical"": {""transparent"": 1, ""refraction"": 1.5, ""birefringence"": 0.01}}"
Jennite,Ca9(Si3O9)2(OH)6·8H2O,"{""Ca"": 9.0, ""Si"": 6.0, ""O"": 32.0, ""H"": 22.0}",1063.44,#FFFFFF,triclinic,"{""system"": ""triclinic"", ""scale"": [0.7, 1.0, 1.3], ""optical"": {""transparent"": 1, ""refraction"": 1.5, ""birefringence"": 0.01}}"
Jensenite,Cu2+3Te6+O6·2H2O,"{""Cu"": 3.0, ""Te"": 1.0, ""O"": 8.0, ""H"": 4.0}",450.28,#FFFFFF,monoclinic,"{""system"": ""monoclinic"", ""scale"": [0.7, 1.0, 1.3], ""optical"": {""transparent"": 1, ""refraction"": 1.5, ""birefringence"": 0.01}}"
Jentschite,TlPbAs2SbS6,"{""Tl"": 1.0, ""Pb"": 1.0, ""As"": 2.0, ""Sb"": 1.0, ""S"": 6.0}",875.54,#708090,monoclinic,"{""system"": ""monoclinic"", ""scale"": [0.7, 1.0, 1.3], ""optical"": {""transparent"": 0, ""refraction"": 0.0, ""birefringence"": 0.0}}"
Jeremejevite,Al6(BO3)5F3,"{""Al"": 6.0, ""B"": 5.0, ""O"": 15.0, ""F"": 3.0}",512.93,#FFFFFF,hexagonal,"{""system"": ""hexagonal"", ""scale"": [1.0, 1.0, 1.6], ""optical"": {""transparent"": 1, ""refraction"": 1.5, ""birefringence"": 0.01}}"
Jervisite,NaSc3+Si2O6,"{""Na"": 1.0, ""Sc"": 1.0, ""Si"": 2.0, ""O"": 6.0}",220.13,#FFFFFF,monoclinic,"{""system"": ""monoclinic"", ""scale"": [0.7, 1.0, 1.3], ""optical"": {""transparent"": 1, ""refraction"": 1.5, ""birefringence"": 0.01}}"
Jezekite,Na8[(UO2)(CO3)3](SO4)2·3H2O,"{""Na"": 8.0, ""U"": 1.0, ""O"": 22.0, ""C"": 3.0, ""S"": 2.0, ""H"": 6.0}",880.15,#FFFFFF,hexagonal,"{""system"": ""hexagonal"", ""scale"": [1.0, 1.0, 1.6], ""optical"": {""transparent"": 1, ""refraction"": 1.5, ""birefringence"": 0.01}}"
Jianmuite,ZrTi4+Ti3+5Al3O16,"{""Zr"": 1.0, ""Ti"": 6.0, ""Al"": 3.0, ""O"": 16.0}",715.38,#FFFFFF,tetragonal,"{""system"": ""tetragonal"", ""scale"": [1.0, 1.0, 1.4], ""optical"": {""transparent"": 1, ""refraction"": 1.5, ""birefringence"": 0.01}}"
Jimkrieghite,Ca(C2H3O3)2,"{""Ca"": 1.0, ""C"": 4.0, ""H"": 6.0, ""O"": 6.0}",190.17,#FFFFFF,orthorhombic,"{""system"": ""orthorhombic"", ""scale"": [0.8, 1.0, 1.2], ""optical"": {""transparent"": 1, ""refraction"": 1.5, ""birefringence"": 0.01}}"
Jimthompsonite,Mg5Si6O16(OH)2,"{""Mg"": 5.0, ""Si"": 6.0, ""O"": 18.0, ""H"": 2.0}",580.11,#FFFFFF,orthorhombic,"{""system"": ""orthorhombic"", ""scale"": [0.8, 1.0, 1.2], ""optical"": {""transparent"": 1, ""refraction"": 1.5, ""birefringence"": 0.01}}"
Jingsuiite,TiB2,"{""Ti"": 1.0, ""B"": 2.0}",69.49,#FFFFFF,hexagonal,"{""system"": ""hexagonal"", ""scale"": [1.0, 1.0, 1.6], ""optical"": {""transparent"": 1, ""refraction"": 1.5, ""birefringence"": 0.01}}"
Jingwenite-(Y),YAlV4+(SiO4)O2(OH)2,"{""Y"": 1.0, ""Al"": 1.0, ""V"": 1.0, ""Si"": 1.0, ""O"": 8.0, ""H"": 2.0}",324.94,#FFFFFF,monoclinic,"{""system"": ""monoclinic"", ""scale"": [0.7, 1.0, 1.3], ""optical"": {""transparent"": 1, ""refraction"": 1.5, ""birefringence"": 0.01}}"
Jinshajiangite,BaNaFe2+4Ti2(Si2O7)2O2(OH)2F,"{""Ba"": 1.0, ""Na"": 1.0, ""Fe"": 4.0, ""Ti"": 2.0, ""Si"": 4.0, ""O"": 18.0, ""H"": 2.0, ""F"": 1.0}",900.84,#556B2F,monoclinic,"{""system"": ""monoclinic"", ""scale"": [0.7, 1.0, 1.3], ""optical"": {""transparent"": 0, ""refraction"": 0.0, ""birefringence"": 0.0}}"
Joanneumite,Cu(C3N3O3H2)2(NH3)2,"{""Cu"": 1.0, ""C"": 6.0, ""N"": 8.0, ""O"": 6.0, ""H"": 10.0}",353.77,#FFFFFF,,"{""system"": """", ""scale"": [1.0, 1.0, 1.0], ""optical"": {""transparent"": 1, ""refraction"": 1.5, ""birefringence"": 0.01}}"
Joaquinite-(Ce),NaBa2Fe2+Ti2Ce2(Si4O12)2O2(OH)·H2O,"{""Na"": 1.0, ""Ba"": 2.0, ""Fe"": 1.0, ""Ti"": 2.0, ""Ce"": 2.0, ""Si"": 8.0, ""O"": 28.0, ""H"": 3.0}",1405.22,#556B2F,monoclinic,"{""system"": ""monoclinic"", ""scale"": [0.7, 1.0, 1.3], ""optical"": {""transparent"": 0, ""refraction"": 0.0, ""birefringence"": 0.0}}"
Joesmithite,Pb2+Ca2(Mg3Fe3+2)(Si6Be2)O22(OH)2,"{""Pb"": 1.0, ""Ca"": 2.0, ""Mg"": 3.0, ""Fe"": 2.0, ""Si"": 6.0, ""Be"": 2.0, ""O"": 24.0, ""H"": 2.0}",1044.57,#556B2F,monoclinic,"{""system"": ""monoclinic"", ""scale"": [0.7, 1.0, 1.3], ""optical"": {""transparent"": 0, ""refraction"": 0.0, ""birefringence"": 0.0}}"
Johachidolite,CaAlB3O7,"{""Ca"": 1.0, ""Al"": 1.0, ""B"": 3.0, ""O"": 7.0}",211.49,#FFFFFF,orthorhombic,"{""system"": ""orthorhombic"", ""scale"": [0.8, 1.0, 1.2], ""optical"": {""transparent"": 1, ""refraction"": 1.5, ""birefringence"": 0.01}}"
Johannite,Cu(UO2)2(SO4)2(OH)2·8H2O,"{""Cu"": 1.0, ""U"": 2.0, ""O"": 22.0, ""S"": 2.0, ""H"": 18.0}",973.87,#FFFFFF,triclinic,"{""system"": ""triclinic"", ""scale"": [0.7, 1.0, 1.3], ""optical"": {""transparent"": 1, ""refraction"": 1.5, ""birefringence"": 0.01}}"
Johillerite,NaCuMgMg2(AsO4)3,"{""Na"": 1.0, ""Cu"": 1.0, ""Mg"": 3.0, ""As"": 3.0, ""O"": 12.0}",576.23,#FFFFFF,monoclinic,"{""system"": ""monoclinic"", ""scale"": [0.7, 1.0, 1.3], ""optical"": {""transparent"": 1, ""refraction"": 1.5, ""birefringence"": 0.01}}"
Johnbaumite,Ca5(AsO4)3(OH),"{""Ca"": 5.0, ""As"": 3.0, ""O"": 13.0, ""H"": 1.0}",634.17,#FFFFFF,monoclinic,"{""system"": ""monoclinic"", ""scale"": [0.7, 1.0, 1.3], ""optical"": {""transparent"": 1, ""refraction"": 1.5, ""birefringence"": 0.01}}"
Johnkoivulaite,Cs[Be2B]Mg2Si6O18,"{""Cs"": 1.0, ""Be"": 2.0, ""B"": 1.0, ""Mg"": 2.0, ""Si"": 6.0, ""O"": 18.0}",666.9,#FFFFFF,hexagonal,"{""system"": ""hexagonal"", ""scale"": [1.0, 1.0, 1.6], ""optical"": {""transparent"": 1, ""refraction"": 1.5, ""birefringence"": 0.01}}"
Johnsomervilleite,Na3CaFe2+11(PO4)9,"{""Na"": 3.0, ""Ca"": 1.0, ""Fe"": 11.0, ""P"": 9.0, ""O"": 36.0}",1578.13,#556B2F,hexagonal,"{""system"": ""hexagonal"", ""scale"": [1.0, 1.0, 1.6], ""optical"": {""transparent"": 0, ""refraction"": 0.0, ""birefringence"": 0.0}}"
Johntomaite,BaFe2+2Fe3+2(PO4)3(OH)3,"{""Ba"": 1.0, ""Fe"": 4.0, ""P"": 3.0, ""O"": 15.0, ""H"": 3.0}",696.66,#556B2F,monoclinic,"{""system"": ""monoclinic"", ""scale"": [0.7, 1.0, 1.3], ""optical"": {""transparent"": 0, ""refraction"": 0.0, ""birefringence"": 0.0}}"
Joliotite,(UO2)(CO3)·2H2O,"{""U"": 1.0, ""O"": 7.0, ""C"": 1.0, ""H"": 4.0}",366.07,#FFFFFF,orthorhombic,"{""system"": ""orthorhombic"", ""scale"": [0.8, 1.0, 1.2], ""optical"": {""transparent"": 1, ""refraction"": 1.5, ""birefringence"": 0.01}}"
Jolliffeite,NiAsSe,"{""Ni"": 1.0, ""As"": 1.0, ""Se"": 1.0}",212.57,#7FFF00,cubic,"{""system"": ""cubic"", ""scale"": [1.0, 1.0, 1.0], ""optical"": {""transparent"": 0, ""refraction"": 0.0, ""birefringence"": 0.0}}"
Jonlarsenite,Al4Cu9,"{""Al"": 4.0, ""Cu"": 9.0}",679.87,#00BFFF,cubic,"{""system"": ""cubic"", ""scale"": [1.0, 1.0, 1.0], ""optical"": {""transparent"": 0, ""refraction"": 0.0, ""birefringence"": 0.0}}"
Jordanite,Pb14As6S23,"{""Pb"": 14.0, ""As"": 6.0, ""S"": 23.0}",4087.7,#708090,monoclinic,"{""system"": ""monoclinic"", ""scale"": [0.7, 1.0, 1.3], ""optical"": {""transparent"": 0, ""refraction"": 0.0, ""birefringence"": 0.0}}"
Jordisite,MoS2,"{""Mo"": 1.0, ""S"": 2.0}",160.07,#A9A9A9,,"{""system"": """", ""scale"": [1.0, 1.0, 1.0], ""optical"": {""transparent"": 0, ""refraction"": 0.0, ""birefringence"": 0.0}}"
Jorgensenite,Na2Sr14Na2Al12F64(OH)4,"{""Na"": 4.0, ""Sr"": 14.0, ""Al"": 12.0, ""F"": 64.0, ""O"": 4.0, ""H"": 4.0}",2926.43,#FFFFFF,monoclinic,"{""system"": ""monoclinic"", ""scale"": [0.7, 1.0, 1.3], ""optical"": {""transparent"": 1, ""refraction"": 1.5, ""birefringence"": 0.01}}"
Joseite-A,Bi4TeS2,"{""Bi"": 4.0, ""Te"": 1.0, ""S"": 2.0}",1027.64,#A9A9A9,,"{""system"": """", ""scale"": [1.0, 1.0, 1.0], ""optical"": {""transparent"": 0, ""refraction"": 0.0, ""birefringence"": 0.0}}"
Joseite-B,Bi4Te2S,"{""Bi"": 4.0, ""Te"": 2.0, ""S"": 1.0}",1123.18,#A9A9A9,,"{""system"": """", ""scale"": [1.0, 1.0, 1.0], ""optical"": {""transparent"": 0, ""refraction"": 0.0, ""birefringence"": 0.0}}"
Joteite,Ca2CuAl(AsO4)[AsO3(OH)]2(OH)2·5H2O,"{""Ca"": 2.0, ""Cu"": 1.0, ""Al"": 1.0, ""As"": 3.0, ""O"": 19.0, ""H"": 14.0}",713.56,#FFFFFF,triclinic,"{""system"": ""triclinic"", ""scale"": [0.7, 1.0, 1.3], ""optical"": {""transparent"": 1, ""refraction"": 1.5, ""birefringence"": 0.01}}"
Juabite,CaCu10(Te4+O3)4(AsO4)4(OH)2·4H2O,"{""Ca"": 1.0, ""Cu"": 10.0, ""Te"": 4.0, ""O"": 34.0, ""As"": 4.0, ""H"": 10.0}",2039.74,#FFFFFF,triclinic,"{""system"": ""triclinic"", ""scale"": [0.7, 1.0, 1.3], ""optical"": {""transparent"": 1, ""refraction"": 1.5, ""birefringence"": 0.01}}"
Juangodoyite,Na2Cu(CO3)2,"{""Na"": 2.0, ""Cu"": 1.0, ""C"": 2.0, ""O"": 6.0}",229.55,#FFFFFF,monoclinic,"{""system"": ""monoclinic"", ""scale"": [0.7, 1.0, 1.3], ""optical"": {""transparent"": 1, ""refraction"": 1.5, ""birefringence"": 0.01}}"
Juansilvaite,Na5Al3[AsO3(OH)]4[AsO2(OH)2]2(SO4)2·4H2O,"{""Na"": 5.0, ""Al"": 3.0, ""As"": 6.0, ""O"": 36.0, ""H"": 16.0, ""S"": 2.0}",1301.66,#FFFFFF,monoclinic,"{""system"": ""monoclinic"", ""scale"": [0.7, 1.0, 1.3], ""optical"": {""transparent"": 1, ""refraction"": 1.5, ""birefringence"": 0.01}}"
Julgoldite-(Fe2+),Ca2Fe2+Fe3+2(Si2O7)(SiO4)(OH)2·H2O,"{""Ca"": 2.0, ""Fe"": 3.0, ""Si"": 3.0, ""O"": 14.0, ""H"": 4.0}",560.01,#556B2F,monoclinic,"{""system"": ""monoclinic"", ""scale"": [0.7, 1.0, 1.3], ""optical"": {""transparent"": 0, ""refraction"": 0.0, ""birefringence"": 0.0}}"
Julgoldite-(Fe3+),Ca2Fe3+Fe3+2(Si2O7)(SiO4)O(OH)·H2O,"{""Ca"": 2.0, ""Fe"": 3.0, ""Si"": 3.0, ""O"": 14.0, ""H"": 3.0}",559.0,#556B2F,monoclinic,"{""system"": ""monoclinic"", ""scale"": [0.7, 1.0, 1.3], ""optical"": {""transparent"": 0, ""refraction"": 0.0, ""birefringence"": 0.0}}"
Julgoldite-(Mg),Ca2MgFe3+2(Si2O7)(SiO4)(OH)2·H2O,"{""Ca"": 2.0, ""Mg"": 1.0, ""Fe"": 2.0, ""Si"": 3.0, ""O"": 14.0, ""H"": 4.0}",528.47,#556B2F,,"{""system"": """", ""scale"": [1.0, 1.0, 1.0], ""optical"": {""transparent"": 0, ""refraction"": 0.0, ""birefringence"": 0.0}}"
Julienite,Na2Co(SCN)4·8H2O,"{""Na"": 2.0, ""Co"": 1.0, ""S"": 4.0, ""C"": 4.0, ""N"": 4.0, ""H"": 16.0, ""O"": 8.0}",481.36,#FFFFFF,monoclinic,"{""system"": ""monoclinic"", ""scale"": [0.7, 1.0, 1.3], ""optical"": {""transparent"": 1, ""refraction"": 1.5, ""birefringence"": 0.01}}"
Juonniite,CaMgSc(PO4)2(OH)·4H2O,"{""Ca"": 1.0, ""Mg"": 1.0, ""Sc"": 1.0, ""P"": 2.0, ""O"": 13.0, ""H"": 9.0}",388.36,#FFFFFF,orthorhombic,"{""system"": ""orthorhombic"", ""scale"": [0.8, 1.0, 1.2], ""optical"": {""transparent"": 1, ""refraction"": 1.5, ""birefringence"": 0.01}}"
Jurbanite,Al(SO4)(OH)·5H2O,"{""Al"": 1.0, ""S"": 1.0, ""O"": 10.0, ""H"": 11.0}",230.13,#FFFFFF,monoclinic,"{""system"": ""monoclinic"", ""scale"": [0.7, 1.0, 1.3], ""optical"": {""transparent"": 1, ""refraction"": 1.5, ""birefringence"": 0.01}}"
Jusite,Na2Ca15Al4Si16O54·17H2O,"{""Na"": 2.0, ""Ca"": 15.0, ""Al"": 4.0, ""Si"": 16.0, ""O"": 71.0, ""H"": 34.0}",2374.81,#FFFFFF,,"{""system"": """", ""scale"": [1.0, 1.0, 1.0], ""optical"": {""transparent"": 1, ""refraction"": 1.5, ""birefringence"": 0.01}}"
Juxingite,Bi6Cu140Fe30S125,"{""Bi"": 6.0, ""Cu"": 140.0, ""Fe"": 30.0, ""S"": 125.0}",15833.88,#DAA520,cubic,"{""system"": ""cubic"", ""scale"": [1.0, 1.0, 1.0], ""optical"": {""transparent"": 0, ""refraction"": 0.0, ""birefringence"": 0.0}}"
Kaatialaite,Fe3+[AsO2(OH)2]3·5H2O,"{""Fe"": 1.0, ""As"": 3.0, ""O"": 17.0, ""H"": 16.0}",568.74,#556B2F,monoclinic,"{""system"": ""monoclinic"", ""scale"": [0.7, 1.0, 1.3], ""optical"": {""transparent"": 0, ""refraction"": 0.0, ""birefringence"": 0.0}}"
Kabalovite,Fe2+3Fe3+4(PO4)6,"{""Fe"": 7.0, ""P"": 6.0, ""O"": 24.0}",960.77,#8B4513,triclinic,"{""system"": ""triclinic"", ""scale"": [0.7, 1.0, 1.3], ""optical"": {""transparent"": 0, ""refraction"": 0.0, ""birefringence"": 0.0}}"
Kadyrelite,([Hg1+]2)3OBr3(OH),"{""Hg"": 6.0, ""O"": 2.0, ""Br"": 3.0, ""H"": 1.0}",1476.25,#FFFFFF,cubic,"{""system"": ""cubic"", ""scale"": [1.0, 1.0, 1.0], ""optical"": {""transparent"": 1, ""refraction"": 1.5, ""birefringence"": 0.0}}"
Kaersutite,NaCa2(Mg3AlTi4+)(Si6Al2)O22O2,"{""Na"": 1.0, ""Ca"": 2.0, ""Mg"": 3.0, ""Al"": 3.0, ""Ti"": 1.0, ""Si"": 6.0, ""O"": 24.0}",857.43,#FFFFFF,monoclinic,"{""system"": ""monoclinic"", ""scale"": [0.7, 1.0, 1.3], ""optical"": {""transparent"": 1, ""refraction"": 1.5, ""birefringence"": 0.01}}"
Kahlenbergite,KAl11O17,"{""K"": 1.0, ""Al"": 11.0, ""O"": 17.0}",607.88,#FFFFFF,hexagonal,"{""system"": ""hexagonal"", ""scale"": [1.0, 1.0, 1.6], ""optical"": {""transparent"": 1, ""refraction"": 1.5, ""birefringence"": 0.01}}"
Kahlerite,Fe2+(UO2)2(AsO4)2·12H2O,"{""Fe"": 1.0, ""U"": 2.0, ""O"": 24.0, ""As"": 2.0, ""H"": 24.0}",1089.94,#556B2F,,"{""system"": """", ""scale"": [1.0, 1.0, 1.0], ""optical"": {""transparent"": 0, ""refraction"": 0.0, ""birefringence"": 0.0}}"
Kainosite-(Y),Ca2Y2(SiO3)4(CO3)·H2O,"{""Ca"": 2.0, ""Y"": 2.0, ""Si"": 4.0, ""O"": 16.0, ""C"": 1.0, ""H"": 2.0}",640.37,#FFFFFF,orthorhombic,"{""system"": ""orthorhombic"", ""scale"": [0.8, 1.0, 1.2], ""optical"": {""transparent"": 1, ""refraction"": 1.5, ""birefringence"": 0.01}}"
Kainotropite,Cu4Fe3+O2(V2O7)(VO4),"{""Cu"": 4.0, ""Fe"": 1.0, ""O"": 13.0, ""V"": 3.0}",670.87,#556B2F,orthorhombic,"{""system"": ""orthorhombic"", ""scale"": [0.8, 1.0, 1.2], ""optical"": {""transparent"": 0, ""refraction"": 0.0, ""birefringence"": 0.0}}"
Kaitianite,Ti3+2Ti4+O5,"{""Ti"": 3.0, ""O"": 5.0}",223.61,#FFFFFF,monoclinic,"{""system"": ""monoclinic"", ""scale"": [0.7, 1.0, 1.3], ""optical"": {""transparent"": 1, ""refraction"": 1.5, ""birefringence"": 0.01}}"
Kalborsite,K6Al4BSi6O20(OH)4Cl,"{""K"": 6.0, ""Al"": 4.0, ""B"": 1.0, ""Si"": 6.0, ""O"": 24.0, ""H"": 4.0, ""Cl"": 1.0}",945.35,#FFFFFF,tetragonal,"{""system"": ""tetragonal"", ""scale"": [1.0, 1.0, 1.4], ""optical"": {""transparent"": 1, ""refraction"": 1.5, ""birefringence"": 0.01}}"
Kalgoorlieite,As2Te3,"{""As"": 2.0, ""Te"": 3.0}",532.64,#808080,monoclinic,"{""system"": ""monoclinic"", ""scale"": [0.7, 1.0, 1.3], ""optical"": {""transparent"": 0, ""refraction"": 0.0, ""birefringence"": 0.0}}"
Kaliborite,KHMg2B12O16(OH)10·4H2O,"{""K"": 1.0, ""H"": 19.0, ""Mg"": 2.0, ""B"": 12.0, ""O"": 30.0}",716.59,#FFFFFF,monoclinic,"{""system"": ""monoclinic"", ""scale"": [0.7, 1.0, 1.3], ""optical"": {""transparent"": 1, ""refraction"": 1.5, ""birefringence"": 0.01}}"
Kalicinite,KH(CO3),"{""K"": 1.0, ""H"": 1.0, ""C"": 1.0, ""O"": 3.0}",100.12,#FFFFFF,monoclinic,"{""system"": ""monoclinic"", ""scale"": [0.7, 1.0, 1.3], ""optical"": {""transparent"": 1, ""refraction"": 1.5, ""birefringence"": 0.01}}"
Kalifersite,K5Fe3+7Si20O50(OH)6·12H2O,"{""K"": 5.0, ""Fe"": 7.0, ""Si"": 20.0, ""O"": 68.0, ""H"": 30.0}",2266.49,#556B2F,triclinic,"{""system"": ""triclinic"", ""scale"": [0.7, 1.0, 1.3], ""optical"": {""transparent"": 0, ""refraction"": 0.0, ""birefringence"": 0.0}}"
Kalinite,KAl(SO4)2·11H2O,"{""K"": 1.0, ""Al"": 1.0, ""S"": 2.0, ""O"": 19.0, ""H"": 22.0}",456.38,#FFFFFF,,"{""system"": """", ""scale"": [1.0, 1.0, 1.0], ""optical"": {""transparent"": 1, ""refraction"": 1.5, ""birefringence"": 0.01}}"
Kaliochalcite,KCu2(SO4)2[(OH)(H2O)],"{""K"": 1.0, ""Cu"": 2.0, ""S"": 2.0, ""O"": 10.0, ""H"": 3.0}",393.34,#FFFFFF,monoclinic,"{""system"": ""monoclinic"", ""scale"": [0.7, 1.0, 1.3], ""optical"": {""transparent"": 1, ""refraction"": 1.5, ""birefringence"": 0.01}}"
Kaliophilite,KAlSiO4,"{""K"": 1.0, ""Al"": 1.0, ""Si"": 1.0, ""O"": 4.0}",158.17,#FFFFFF,hexagonal,"{""system"": ""hexagonal"", ""scale"": [1.0, 1.0, 1.6], ""optical"": {""transparent"": 1, ""refraction"": 1.5, ""birefringence"": 0.01}}"
Kalistrontite,K2Sr(SO4)2,"{""K"": 2.0, ""Sr"": 1.0, ""S"": 2.0, ""O"": 8.0}",357.94,#FFFFFF,hexagonal,"{""system"": ""hexagonal"", ""scale"": [1.0, 1.0, 1.6], ""optical"": {""transparent"": 1, ""refraction"": 1.5, ""birefringence"": 0.01}}"
Kalithallite,K3Tl3+Cl6·2H2O,"{""K"": 3.0, ""Tl"": 1.0, ""Cl"": 6.0, ""H"": 4.0, ""O"": 2.0}",570.41,#FFFFFF,tetragonal,"{""system"": ""tetragonal"", ""scale"": [1.0, 1.0, 1.4], ""optical"": {""transparent"": 1, ""refraction"": 1.5, ""birefringence"": 0.01}}"
Kalsilite,KAlSiO4,"{""K"": 1.0, ""Al"": 1.0, ""Si"": 1.0, ""O"": 4.0}",158.17,#FFFFFF,hexagonal,"{""system"": ""hexagonal"", ""scale"": [1.0, 1.0, 1.6], ""optical"": {""transparent"": 1, ""refraction"": 1.5, ""birefringence"": 0.01}}"
Kalungaite,PdAsSe,"{""Pd"": 1.0, ""As"": 1.0, ""Se"": 1.0}",260.3,#808080,cubic,"{""system"": ""cubic"", ""scale"": [1.0, 1.0, 1.0], ""optical"": {""transparent"": 0, ""refraction"": 0.0, ""birefringence"": 0.0}}"
Kalyuzhnyite-(Ce),NaKCaSrCeTi(Si8O21)OF(H2O)3,"{""Na"": 1.0, ""K"": 1.0, ""Ca"": 1.0, ""Sr"": 1.0, ""Ce"": 1.0, ""Ti"": 1.0, ""Si"": 8.0, ""O"": 25.0, ""F"": 1.0, ""H"": 6.0}",1027.55,#FFFFFF,monoclinic,"{""system"": ""monoclinic"", ""scale"": [0.7, 1.0, 1.3], ""optical"": {""transparent"": 1, ""refraction"": 1.5, ""birefringence"": 0.01}}"
Kamaishilite,Ca2(SiAl2)O6(OH)2,"{""Ca"": 2.0, ""Si"": 1.0, ""Al"": 2.0, ""O"": 8.0, ""H"": 2.0}",292.23,#FFFFFF,tetragonal,"{""system"": ""tetragonal"", ""scale"": [1.0, 1.0, 1.4], ""optical"": {""transparent"": 1, ""refraction"": 1.5, ""birefringence"": 0.01}}"
Kamarizaite,Fe3+3(AsO4)2(OH)3·3H2O,"{""Fe"": 3.0, ""As"": 2.0, ""O"": 14.0, ""H"": 9.0}",550.46,#556B2F,orthorhombic,"{""system"": ""orthorhombic"", ""scale"": [0.8, 1.0, 1.2], ""optical"": {""transparent"": 0, ""refraction"": 0.0, ""birefringence"": 0.0}}"
Kambaldaite,NaNi4(CO3)3(OH)3·3H2O,"{""Na"": 1.0, ""Ni"": 4.0, ""C"": 3.0, ""O"": 15.0, ""H"": 9.0}",542.85,#FFFFFF,hexagonal,"{""system"": ""hexagonal"", ""scale"": [1.0, 1.0, 1.6], ""optical"": {""transparent"": 1, ""refraction"": 1.5, ""birefringence"": 0.01}}"
Kamchatkite,KCu3O(SO4)2Cl,"{""K"": 1.0, ""Cu"": 3.0, ""O"": 9.0, ""S"": 2.0, ""Cl"": 1.0}",473.32,#FFFFFF,orthorhombic,"{""system"": ""orthorhombic"", ""scale"": [0.8, 1.0, 1.2], ""optical"": {""transparent"": 1, ""refraction"": 1.5, ""birefringence"": 0.01}}"
Kamenevite,K2TiSi3O9·H2O,"{""K"": 2.0, ""Ti"": 1.0, ""Si"": 3.0, ""O"": 10.0, ""H"": 2.0}",372.36,#FFFFFF,orthorhombic,"{""system"": ""orthorhombic"", ""scale"": [0.8, 1.0, 1.2], ""optical"": {""transparent"": 1, ""refraction"": 1.5, ""birefringence"": 0.01}}"
Kamiokite,Fe2+2Mo4+3O8,"{""Fe"": 2.0, ""Mo"": 3.0, ""O"": 8.0}",527.55,#8B4513,hexagonal,"{""system"": ""hexagonal"", ""scale"": [1.0, 1.0, 1.6], ""optical"": {""transparent"": 0, ""refraction"": 0.0, ""birefringence"": 0.0}}"
Kamotoite-(Y),Y2O4(UO2)4(CO3)3·14H2O,"{""Y"": 2.0, ""O"": 35.0, ""U"": 4.0, ""C"": 3.0, ""H"": 28.0}",1754.19,#FFFFFF,monoclinic,"{""system"": ""monoclinic"", ""scale"": [0.7, 1.0, 1.3], ""optical"": {""transparent"": 1, ""refraction"": 1.5, ""birefringence"": 0.01}}"
Kampfite,Ba12(Si11Al5)O31(CO3)8Cl5,"{""Ba"": 12.0, ""Si"": 11.0, ""Al"": 5.0, ""O"": 55.0, ""C"": 8.0, ""Cl"": 5.0}",3245.18,#FFFFFF,monoclinic,"{""system"": ""monoclinic"", ""scale"": [0.7, 1.0, 1.3], ""optical"": {""transparent"": 1, ""refraction"": 1.5, ""birefringence"": 0.01}}"
Kamphaugite-(Y),CaY(CO3)2(OH)·H2O,"{""Ca"": 1.0, ""Y"": 1.0, ""C"": 2.0, ""O"": 8.0, ""H"": 3.0}",284.03,#FFFFFF,tetragonal,"{""system"": ""tetragonal"", ""scale"": [1.0, 1.0, 1.4], ""optical"": {""transparent"": 1, ""refraction"": 1.5, ""birefringence"": 0.01}}"
Kanatzidisite,(SbBiS3)2Te2,"{""Sb"": 2.0, ""Bi"": 2.0, ""S"": 6.0, ""Te"": 2.0}",1109.04,#A9A9A9,monoclinic,"{""system"": ""monoclinic"", ""scale"": [0.7, 1.0, 1.3], ""optical"": {""transparent"": 0, ""refraction"": 0.0, ""birefringence"": 0.0}}"
Kanemite,NaSi2O4(OH)·3H2O,"{""Na"": 1.0, ""Si"": 2.0, ""O"": 8.0, ""H"": 7.0}",214.23,#FFFFFF,orthorhombic,"{""system"": ""orthorhombic"", ""scale"": [0.8, 1.0, 1.2], ""optical"": {""transparent"": 1, ""refraction"": 1.5, ""birefringence"": 0.01}}"
Kangjinlaite,Ti11Si10,"{""Ti"": 11.0, ""Si"": 10.0}",807.47,#FFFFFF,tetragonal,"{""system"": ""tetragonal"", ""scale"": [1.0, 1.0, 1.4], ""optical"": {""transparent"": 1, ""refraction"": 1.5, ""birefringence"": 0.01}}"