name,formula,elements,density,color,crystal_system,dna
Bolivarite,Al2(PO4)(OH)3·4H2O,"{""Al"": 2.0, ""P"": 1.0, ""O"": 11.0, ""H"": 11.0}",272.02,#FFFFFF,,"{""system"": """", ""scale"": [1.0, 1.0, 1.0], ""optical"": {""transparent"": 1, ""refraction"": 1.5, ""birefringence"": 0.01}}"
Bonaccordite,Ni2Fe3+O2(BO3),"{""Ni"": 2.0, ""Fe"": 1.0, ""O"": 5.0, ""B"": 1.0}",264.04,#556B2F,orthorhombic,"{""system"": ""orthorhombic"", ""scale"": [0.8, 1.0, 1.2], ""optical"": {""transparent"": 0, ""refraction"": 0.0, ""birefringence"": 0.0}}"
Bonaccorsiite,KK2Na3(Al6Si36)O84,"{""K"": 3.0, ""Na"": 3.0, ""Al"": 6.0, ""Si"": 36.0, ""O"": 84.0}",2703.39,#FFFFFF,hexagonal,"{""system"": ""hexagonal"", ""scale"": [1.0, 1.0, 1.6], ""optical"": {""transparent"": 1, ""refraction"": 1.5, ""birefringence"": 0.01}}"
Bonacinaite,Sc(AsO4)·2H2O,"{""Sc"": 1.0, ""As"": 1.0, ""O"": 6.0, ""H"": 4.0}",219.91,#FFFFFF,triclinic,"{""system"": ""triclinic"", ""scale"": [0.7, 1.0, 1.3], ""optical"": {""transparent"": 1, ""refraction"": 1.5, ""birefringence"": 0.01}}"
Bonattite,Cu(SO4)·3H2O,"{""Cu"": 1.0, ""S"": 1.0, ""O"": 7.0, ""H"": 6.0}",213.66,#FFFFFF,monoclinic,"{""system"": ""monoclinic"", ""scale"": [0.7, 1.0, 1.3], ""optical"": {""transparent"": 1, ""refraction"": 1.5, ""birefringence"": 0.01}}"
Bonazziite,As4S4,"{""As"": 4.0, ""S"": 4.0}",427.92,#FFD700,monoclinic,"{""system"": ""monoclinic"", ""scale"": [0.7, 1.0, 1.3], ""optical"": {""transparent"": 0, ""refraction"": 0.0, ""birefringence"": 0.0}}"
Bonshtedtite,Na3Fe2+(PO4)(CO3),"{""Na"": 3.0, ""Fe"": 1.0, ""P"": 1.0, ""O"": 7.0, ""C"": 1.0}",279.8,#556B2F,monoclinic,"{""system"": ""monoclinic"", ""scale"": [0.7, 1.0, 1.3], ""optical"": {""transparent"": 0, ""refraction"": 0.0, ""birefringence"": 0.0}}"
Boojumite,Pb8O4(OH)2(S2O3)3,"{""Pb"": 8.0, ""O"": 15.0, ""H"": 2.0, ""S"": 6.0}",2091.98,#FFFFFF,orthorhombic,"{""system"": ""orthorhombic"", ""scale"": [0.8, 1.0, 1.2], ""optical"": {""transparent"": 1, ""refraction"": 1.5, ""birefringence"": 0.01}}"
Boothite,Cu(SO4)·7H2O,"{""Cu"": 1.0, ""S"": 1.0, ""O"": 11.0, ""H"": 14.0}",285.72,#FFFFFF,monoclinic,"{""system"": ""monoclinic"", ""scale"": [0.7, 1.0, 1.3], ""optical"": {""transparent"": 1, ""refraction"": 1.5, ""birefringence"": 0.01}}"
Boracite,Mg3B7O13Cl,"{""Mg"": 3.0, ""B"": 7.0, ""O"": 13.0, ""Cl"": 1.0}",392.05,#FFFFFF,cubic,"{""system"": ""cubic"", ""scale"": [1.0, 1.0, 1.0], ""optical"": {""transparent"": 1, ""refraction"": 1.5, ""birefringence"": 0.0}}"
Boralsilite,Al16B6O30(Si2O7),"{""Al"": 16.0, ""B"": 6.0, ""O"": 37.0, ""Si"": 2.0}",1144.72,#FFFFFF,monoclinic,"{""system"": ""monoclinic"", ""scale"": [0.7, 1.0, 1.3], ""optical"": {""transparent"": 1, ""refraction"": 1.5, ""birefringence"": 0.01}}"
Borax,Na2B4O5(OH)4·8H2O,"{""Na"": 2.0, ""B"": 4.0, ""O"": 17.0, ""H"": 20.0}",381.38,#FFFFFF,monoclinic,"{""system"": ""monoclinic"", ""scale"": [0.7, 1.0, 1.3], ""optical"": {""transparent"": 1, ""refraction"": 1.5, ""birefringence"": 0.01}}"
Borcarite,Ca4MgB4O6(CO3)2(OH)6,"{""Ca"": 4.0, ""Mg"": 1.0, ""B"": 4.0, ""O"": 18.0, ""C"": 2.0, ""H"": 6.0}",545.94,#FFFFFF,monoclinic,"{""system"": ""monoclinic"", ""scale"": [0.7, 1.0, 1.3], ""optical"": {""transparent"": 1, ""refraction"": 1.5, ""birefringence"": 0.01}}"
Bornhardtite,Co2+Co3+2Se4,"{""Co"": 3.0, ""Se"": 4.0}",492.63,#4169E1,cubic,"{""system"": ""cubic"", ""scale"": [1.0, 1.0, 1.0], ""optical"": {""transparent"": 0, ""refraction"": 0.0, ""birefringence"": 0.0}}"
Bornite,Cu5FeS4,"{""Cu"": 5.0, ""Fe"": 1.0, ""S"": 4.0}",501.84,#DAA520,hexagonal,"{""system"": ""hexagonal"", ""scale"": [1.0, 1.0, 1.6], ""optical"": {""transparent"": 0, ""refraction"": 0.0, ""birefringence"": 0.0}}"
Borocookeite,LiAl4(Si3B)O10(OH)8,"{""Li"": 1.0, ""Al"": 4.0, ""Si"": 3.0, ""B"": 1.0, ""O"": 18.0, ""H"": 8.0}",506.0,#FFFFFF,monoclinic,"{""system"": ""monoclinic"", ""scale"": [0.7, 1.0, 1.3], ""optical"": {""transparent"": 1, ""refraction"": 1.5, ""birefringence"": 0.01}}"
Boromullite,Al9BSi2O19,"{""Al"": 9.0, ""B"": 1.0, ""Si"": 2.0, ""O"": 19.0}",613.81,#FFFFFF,orthorhombic,"{""system"": ""orthorhombic"", ""scale"": [0.8, 1.0, 1.2], ""optical"": {""transparent"": 1, ""refraction"": 1.5, ""birefringence"": 0.01}}"
Boromuscovite,KAl2(Si3B)O10(OH)2,"{""K"": 1.0, ""Al"": 2.0, ""Si"": 3.0, ""B"": 1.0, ""O"": 12.0, ""H"": 2.0}",382.16,#FFFFFF,monoclinic,"{""system"": ""monoclinic"", ""scale"": [0.7, 1.0, 1.3], ""optical"": {""transparent"": 1, ""refraction"": 1.5, ""birefringence"": 0.01}}"
Borovskite,Pd3SbTe4,"{""Pd"": 3.0, ""Sb"": 1.0, ""Te"": 4.0}",951.42,#A9A9A9,cubic,"{""system"": ""cubic"", ""scale"": [1.0, 1.0, 1.0], ""optical"": {""transparent"": 0, ""refraction"": 0.0, ""birefringence"": 0.0}}"
Borzeckiite,Pb(UO2)3(SeO3)2O2·3H2O,"{""Pb"": 1.0, ""U"": 3.0, ""O"": 17.0, ""Se"": 2.0, ""H"": 6.0}",1357.26,#FFFFFF,orthorhombic,"{""system"": ""orthorhombic"", ""scale"": [0.8, 1.0, 1.2], ""optical"": {""transparent"": 1, ""refraction"": 1.5, ""birefringence"": 0.01}}"
Boscardinite,TlPb4(Sb7As2)Σ=9S18,"{""Tl"": 1.0, ""Pb"": 4.0, ""Sb"": 63.0, ""As"": 18.0, ""S"": 18.0}",10629.7,#708090,triclinic,"{""system"": ""triclinic"", ""scale"": [0.7, 1.0, 1.3], ""optical"": {""transparent"": 0, ""refraction"": 0.0, ""birefringence"": 0.0}}"
Bosiite,NaFe3+3(Al4Mg2)(Si6O18)(BO3)3(OH)3O,"{""Na"": 1.0, ""Fe"": 3.0, ""Al"": 4.0, ""Mg"": 2.0, ""Si"": 6.0, ""O"": 31.0, ""B"": 3.0, ""H"": 3.0}",1047.07,#556B2F,hexagonal,"{""system"": ""hexagonal"", ""scale"": [1.0, 1.0, 1.6], ""optical"": {""transparent"": 0, ""refraction"": 0.0, ""birefringence"": 0.0}}"
Botallackite,Cu2Cl(OH)3,"{""Cu"": 2.0, ""Cl"": 1.0, ""O"": 3.0, ""H"": 3.0}",213.57,#FFFFFF,monoclinic,"{""system"": ""monoclinic"", ""scale"": [0.7, 1.0, 1.3], ""optical"": {""transparent"": 1, ""refraction"": 1.5, ""birefringence"": 0.01}}"
Botryogen,MgFe3+(SO4)2(OH)·7H2O,"{""Mg"": 1.0, ""Fe"": 1.0, ""S"": 2.0, ""O"": 16.0, ""H"": 15.0}",415.4,#556B2F,monoclinic,"{""system"": ""monoclinic"", ""scale"": [0.7, 1.0, 1.3], ""optical"": {""transparent"": 0, ""refraction"": 0.0, ""birefringence"": 0.0}}"
Bottinoite,NiSb5+2(OH)12·6H2O,"{""Ni"": 1.0, ""Sb"": 2.0, ""O"": 18.0, ""H"": 24.0}",614.4,#FFFFFF,hexagonal,"{""system"": ""hexagonal"", ""scale"": [1.0, 1.0, 1.6], ""optical"": {""transparent"": 1, ""refraction"": 1.5, ""birefringence"": 0.01}}"
Botuobinskite,SrFe2+(Ti4+12Cr3+6)Mg2[O36(OH)2],"{""Sr"": 1.0, ""Fe"": 1.0, ""Ti"": 12.0, ""Cr"": 6.0, ""Mg"": 2.0, ""O"": 38.0, ""H"": 2.0}",1688.55,#556B2F,hexagonal,"{""system"": ""hexagonal"", ""scale"": [1.0, 1.0, 1.6], ""optical"": {""transparent"": 0, ""refraction"": 0.0, ""birefringence"": 0.0}}"
Boulangerite,Pb5Sb4S11,"{""Pb"": 5.0, ""Sb"": 4.0, ""S"": 11.0}",1875.7,#708090,monoclinic,"{""system"": ""monoclinic"", ""scale"": [0.7, 1.0, 1.3], ""optical"": {""transparent"": 0, ""refraction"": 0.0, ""birefringence"": 0.0}}"
Bounahasite,Cu1+Cu2+2(OH)3Cl2,"{""Cu"": 3.0, ""O"": 3.0, ""H"": 3.0, ""Cl"": 2.0}",312.57,#FFFFFF,monoclinic,"{""system"": ""monoclinic"", ""scale"": [0.7, 1.0, 1.3], ""optical"": {""transparent"": 1, ""refraction"": 1.5, ""birefringence"": 0.01}}"
Bournonite,CuPbSbS3,"{""Cu"": 1.0, ""Pb"": 1.0, ""Sb"": 1.0, ""S"": 3.0}",488.69,#708090,orthorhombic,"{""system"": ""orthorhombic"", ""scale"": [0.8, 1.0, 1.2], ""optical"": {""transparent"": 0, ""refraction"": 0.0, ""birefringence"": 0.0}}"
Bouskaite,(MoO2)2O(SO3OH)2(H2O)2·2H2O,"{""Mo"": 2.0, ""O"": 17.0, ""S"": 2.0, ""H"": 10.0}",538.1,#FFFFFF,triclinic,"{""system"": ""triclinic"", ""scale"": [0.7, 1.0, 1.3], ""optical"": {""transparent"": 1, ""refraction"": 1.5, ""birefringence"": 0.01}}"
Boussingaultite,(NH4)2Mg(SO4)2·6H2O,"{""N"": 2.0, ""H"": 20.0, ""Mg"": 1.0, ""S"": 2.0, ""O"": 14.0}",360.61,#FFFFFF,monoclinic,"{""system"": ""monoclinic"", ""scale"": [0.7, 1.0, 1.3], ""optical"": {""transparent"": 1, ""refraction"": 1.5, ""birefringence"": 0.01}}"
Bowieite,Rh2S3,"{""Rh"": 2.0, ""S"": 3.0}",302.0,#A9A9A9,orthorhombic,"{""system"": ""orthorhombic"", ""scale"": [0.8, 1.0, 1.2], ""optical"": {""transparent"": 0, ""refraction"": 0.0, ""birefringence"": 0.0}}"
Bracewellite,CrO(OH),"{""Cr"": 1.0, ""O"": 2.0, ""H"": 1.0}",85.01,#228B22,orthorhombic,"{""system"": ""orthorhombic"", ""scale"": [0.8, 1.0, 1.2], ""optical"": {""transparent"": 0, ""refraction"": 0.0, ""birefringence"": 0.0}}"
Bradaczekite,NaCuCuCu2(AsO4)3,"{""Na"": 1.0, ""Cu"": 4.0, ""As"": 3.0, ""O"": 12.0}",693.95,#FFFFFF,monoclinic,"{""system"": ""monoclinic"", ""scale"": [0.7, 1.0, 1.3], ""optical"": {""transparent"": 1, ""refraction"": 1.5, ""birefringence"": 0.01}}"
Bradleyite,Na3Mg(PO4)(CO3),"{""Na"": 3.0, ""Mg"": 1.0, ""P"": 1.0, ""O"": 7.0, ""C"": 1.0}",248.26,#FFFFFF,monoclinic,"{""system"": ""monoclinic"", ""scale"": [0.7, 1.0, 1.3], ""optical"": {""transparent"": 1, ""refraction"": 1.5, ""birefringence"": 0.01}}"
Braggite,PdPt3S4,"{""Pd"": 1.0, ""Pt"": 3.0, ""S"": 4.0}",819.9,#A9A9A9,tetragonal,"{""system"": ""tetragonal"", ""scale"": [1.0, 1.0, 1.4], ""optical"": {""transparent"": 0, ""refraction"": 0.0, ""birefringence"": 0.0}}"
Braithwaiteite,NaCu2+5(Sb5+Ti4+)O2(AsO4)4[AsO3(OH)]2·8H2O,"{""Na"": 1.0, ""Cu"": 5.0, ""Sb"": 1.0, ""Ti"": 1.0, ""O"": 34.0, ""As"": 6.0, ""H"": 18.0}",1522.03,#FFFFFF,triclinic,"{""system"": ""triclinic"", ""scale"": [0.7, 1.0, 1.3], ""optical"": {""transparent"": 1, ""refraction"": 1.5, ""birefringence"": 0.01}}"
Branchite,C20H34,"{""C"": 20.0, ""H"": 34.0}",274.47,#FFFFFF,triclinic,"{""system"": ""triclinic"", ""scale"": [0.7, 1.0, 1.3], ""optical"": {""transparent"": 1, ""refraction"": 1.5, ""birefringence"": 0.01}}"
Brandaoite,BeAl2(PO4)2(OH)2(H2O)4·H2O,"{""Be"": 1.0, ""Al"": 2.0, ""P"": 2.0, ""O"": 15.0, ""H"": 12.0}",377.01,#FFFFFF,triclinic,"{""system"": ""triclinic"", ""scale"": [0.7, 1.0, 1.3], ""optical"": {""transparent"": 1, ""refraction"": 1.5, ""birefringence"": 0.01}}"
Brandholzite,MgSb2(OH)12·6H2O,"{""Mg"": 1.0, ""Sb"": 2.0, ""O"": 18.0, ""H"": 24.0}",580.02,#FFFFFF,hexagonal,"{""system"": ""hexagonal"", ""scale"": [1.0, 1.0, 1.6], ""optical"": {""transparent"": 1, ""refraction"": 1.5, ""birefringence"": 0.01}}"
Brannerite,UTi2O6,"{""U"": 1.0, ""Ti"": 2.0, ""O"": 6.0}",429.77,#ADFF2F,monoclinic,"{""system"": ""monoclinic"", ""scale"": [0.7, 1.0, 1.3], ""optical"": {""transparent"": 0, ""refraction"": 0.0, ""birefringence"": 0.0}}"
Brassite,Mg(AsO3OH)·4H2O,"{""Mg"": 1.0, ""As"": 1.0, ""O"": 8.0, ""H"": 9.0}",236.3,#FFFFFF,orthorhombic,"{""system"": ""orthorhombic"", ""scale"": [0.8, 1.0, 1.2], ""optical"": {""transparent"": 1, ""refraction"": 1.5, ""birefringence"": 0.01}}"
Braunerite,K2Ca(UO2)(CO3)3·6H2O,"{""K"": 2.0, ""Ca"": 1.0, ""U"": 1.0, ""O"": 17.0, ""C"": 3.0, ""H"": 12.0}",676.44,#FFFFFF,monoclinic,"{""system"": ""monoclinic"", ""scale"": [0.7, 1.0, 1.3], ""optical"": {""transparent"": 1, ""refraction"": 1.5, ""birefringence"": 0.01}}"
Brazilianite,NaAl3(PO4)2(OH)4,"{""Na"": 1.0, ""Al"": 3.0, ""P"": 2.0, ""O"": 12.0, ""H"": 4.0}",361.9,#FFFFFF,monoclinic,"{""system"": ""monoclinic"", ""scale"": [0.7, 1.0, 1.3], ""optical"": {""transparent"": 1, ""refraction"": 1.5, ""birefringence"": 0.01}}"
Bredigite,Ca7Mg(SiO4)4,"{""Ca"": 7.0, ""Mg"": 1.0, ""Si"": 4.0, ""O"": 16.0}",673.23,#FFFFFF,orthorhombic,"{""system"": ""orthorhombic"", ""scale"": [0.8, 1.0, 1.2], ""optical"": {""transparent"": 1, ""refraction"": 1.5, ""birefringence"": 0.01}}"
Breithauptite,NiSb,"{""Ni"": 1.0, ""Sb"": 1.0}",180.45,#7FFF00,hexagonal,"{""system"": ""hexagonal"", ""scale"": [1.0, 1.0, 1.6], ""optical"": {""transparent"": 0, ""refraction"": 0.0, ""birefringence"": 0.0}}"
Brenkite,Ca2(CO3)F2,"{""Ca"": 2.0, ""C"": 1.0, ""O"": 3.0, ""F"": 2.0}",178.17,#FFFFFF,orthorhombic,"{""system"": ""orthorhombic"", ""scale"": [0.8, 1.0, 1.2], ""optical"": {""transparent"": 1, ""refraction"": 1.5, ""birefringence"": 0.01}}"
Brewsterite-Ba,Ba(Al2Si6)O16·5H2O,"{""Ba"": 1.0, ""Al"": 2.0, ""Si"": 6.0, ""O"": 21.0, ""H"": 10.0}",705.91,#FFFFFF,triclinic,"{""system"": ""triclinic"", ""scale"": [0.7, 1.0, 1.3], ""optical"": {""transparent"": 1, ""refraction"": 1.5, ""birefringence"": 0.01}}"
Brewsterite-Sr,Sr(Al2Si6)O16·5H2O,"{""Sr"": 1.0, ""Al"": 2.0, ""Si"": 6.0, ""O"": 21.0, ""H"": 10.0}",656.2,#FFFFFF,triclinic,"{""system"": ""triclinic"", ""scale"": [0.7, 1.0, 1.3], ""optical"": {""transparent"": 1, ""refraction"": 1.5, ""birefringence"": 0.01}}"
Breyite,Ca3Si3O9,"{""Ca"": 3.0, ""Si"": 3.0, ""O"": 9.0}",348.51,#FFFFFF,triclinic,"{""system"": ""triclinic"", ""scale"": [0.7, 1.0, 1.3], ""optical"": {""transparent"": 1, ""refraction"": 1.5, ""birefringence"": 0.01}}"
Brezinaite,Cr3S4,"{""Cr"": 3.0, ""S"": 4.0}",284.24,#A9A9A9,monoclinic,"{""system"": ""monoclinic"", ""scale"": [0.7, 1.0, 1.3], ""optical"": {""transparent"": 0, ""refraction"": 0.0, ""birefringence"": 0.0}}"
Brianite,Na2CaMg(PO4)2,"{""Na"": 2.0, ""Ca"": 1.0, ""Mg"": 1.0, ""P"": 2.0, ""O"": 8.0}",300.31,#FFFFFF,monoclinic,"{""system"": ""monoclinic"", ""scale"": [0.7, 1.0, 1.3], ""optical"": {""transparent"": 1, ""refraction"": 1.5, ""birefringence"": 0.01}}"
Brianroulstonite,Ca3B5O6(OH)7Cl2·8H2O,"{""Ca"": 3.0, ""B"": 5.0, ""O"": 21.0, ""H"": 23.0, ""Cl"": 2.0}",604.37,#FFFFFF,monoclinic,"{""system"": ""monoclinic"", ""scale"": [0.7, 1.0, 1.3], ""optical"": {""transparent"": 1, ""refraction"": 1.5, ""birefringence"": 0.01}}"
Briartite,Cu2FeGeS4,"{""Cu"": 2.0, ""Fe"": 1.0, ""Ge"": 1.0, ""S"": 4.0}",383.82,#DAA520,tetragonal,"{""system"": ""tetragonal"", ""scale"": [1.0, 1.0, 1.4], ""optical"": {""transparent"": 0, ""refraction"": 0.0, ""birefringence"": 0.0}}"
Bridgesite-(Ce),CaCe2Cu6(SO4)4(OH)12·8H2O,"{""Ca"": 1.0, ""Ce"": 2.0, ""Cu"": 6.0, ""S"": 4.0, ""O"": 36.0, ""H"": 28.0}",1434.08,#FFFFFF,monoclinic,"{""system"": ""monoclinic"", ""scale"": [0.7, 1.0, 1.3], ""optical"": {""transparent"": 1, ""refraction"": 1.5, ""birefringence"": 0.01}}"
Bridgmanite,MgSiO3,"{""Mg"": 1.0, ""Si"": 1.0, ""O"": 3.0}",100.4,#FFFFFF,orthorhombic,"{""system"": ""orthorhombic"", ""scale"": [0.8, 1.0, 1.2], ""optical"": {""transparent"": 1, ""refraction"": 1.5, ""birefringence"": 0.01}}"
Britvinite,Pb14Mg9(Si10O28)(BO3)4(CO3)2(OH)12F2,"{""Pb"": 14.0, ""Mg"": 9.0, ""Si"": 10.0, ""O"": 58.0, ""B"": 4.0, ""C"": 2.0, ""H"": 12.0, ""F"": 2.0}",4445.85,#FFFFFF,triclinic,"{""system"": ""triclinic"", ""scale"": [0.7, 1.0, 1.3], ""optical"": {""transparent"": 1, ""refraction"": 1.5, ""birefringence"": 0.01}}"
Brizziite,NaSbO3,"{""Na"": 1.0, ""Sb"": 1.0, ""O"": 3.0}",192.75,#A9A9A9,hexagonal,"{""system"": ""hexagonal"", ""scale"": [1.0, 1.0, 1.6], ""optical"": {""transparent"": 0, ""refraction"": 0.0, ""birefringence"": 0.0}}"
Brochantite,Cu4(SO4)(OH)6,"{""Cu"": 4.0, ""S"": 1.0, ""O"": 10.0, ""H"": 6.0}",452.31,#FFFFFF,monoclinic,"{""system"": ""monoclinic"", ""scale"": [0.7, 1.0, 1.3], ""optical"": {""transparent"": 1, ""refraction"": 1.5, ""birefringence"": 0.01}}"
Brodtkorbite,Cu2HgSe2,"{""Cu"": 2.0, ""Hg"": 1.0, ""Se"": 2.0}",485.61,#00BFFF,monoclinic,"{""system"": ""monoclinic"", ""scale"": [0.7, 1.0, 1.3], ""optical"": {""transparent"": 0, ""refraction"": 0.0, ""birefringence"": 0.0}}"
Bromargyrite,AgBr,"{""Ag"": 1.0, ""Br"": 1.0}",187.77,#C0C0C0,cubic,"{""system"": ""cubic"", ""scale"": [1.0, 1.0, 1.0], ""optical"": {""transparent"": 0, ""refraction"": 0.0, ""birefringence"": 0.0}}"
Bromellite,BeO,"{""Be"": 1.0, ""O"": 1.0}",25.01,#FFFFFF,hexagonal,"{""system"": ""hexagonal"", ""scale"": [1.0, 1.0, 1.6], ""optical"": {""transparent"": 1, ""refraction"": 1.5, ""birefringence"": 0.01}}"
Brontesite,(NH4)3PbCl5,"{""N"": 3.0, ""H"": 12.0, ""Pb"": 1.0, ""Cl"": 5.0}",438.58,#FFFFFF,orthorhombic,"{""system"": ""orthorhombic"", ""scale"": [0.8, 1.0, 1.2], ""optical"": {""transparent"": 1, ""refraction"": 1.5, ""birefringence"": 0.01}}"
Brookite,TiO2,"{""Ti"": 1.0, ""O"": 2.0}",79.87,#FFFFFF,orthorhombic,"{""system"": ""orthorhombic"", ""scale"": [0.8, 1.0, 1.2], ""optical"": {""transparent"": 1, ""refraction"": 1.5, ""birefringence"": 0.01}}"
Brownmillerite,Ca2Fe3+AlO5,"{""Ca"": 2.0, ""Fe"": 1.0, ""Al"": 1.0, ""O"": 5.0}",242.99,#556B2F,orthorhombic,"{""system"": ""orthorhombic"", ""scale"": [0.8, 1.0, 1.2], ""optical"": {""transparent"": 0, ""refraction"": 0.0, ""birefringence"": 0.0}}"
Brucite,Mg(OH)2,"{""Mg"": 1.0, ""O"": 2.0, ""H"": 2.0}",58.33,#FFFFFF,hexagonal,"{""system"": ""hexagonal"", ""scale"": [1.0, 1.0, 1.6], ""optical"": {""transparent"": 1, ""refraction"": 1.5, ""birefringence"": 0.01}}"
Bruggenite,Ca(IO3)2·H2O,"{""Ca"": 1.0, ""I"": 2.0, ""O"": 7.0, ""H"": 2.0}",407.9,#FFFFFF,monoclinic,"{""system"": ""monoclinic"", ""scale"": [0.7, 1.0, 1.3], ""optical"": {""transparent"": 1, ""refraction"": 1.5, ""birefringence"": 0.01}}"
Brugnatellite,Mg6Fe3+(CO3)(OH)13·4H2O,"{""Mg"": 6.0, ""Fe"": 1.0, ""C"": 1.0, ""O"": 20.0, ""H"": 21.0}",554.89,#556B2F,hexagonal,"{""system"": ""hexagonal"", ""scale"": [1.0, 1.0, 1.6], ""optical"": {""transparent"": 0, ""refraction"": 0.0, ""birefringence"": 0.0}}"
Brumadoite,Cu3(Te6+O4)(OH)4·5H2O,"{""Cu"": 3.0, ""Te"": 1.0, ""O"": 13.0, ""H"": 14.0}",540.36,#FFFFFF,monoclinic,"{""system"": ""monoclinic"", ""scale"": [0.7, 1.0, 1.3], ""optical"": {""transparent"": 1, ""refraction"": 1.5, ""birefringence"": 0.01}}"
Brunogeierite,Fe2+2Ge4+O4,"{""Fe"": 2.0, ""Ge"": 1.0, ""O"": 4.0}",248.33,#8B4513,cubic,"{""system"": ""cubic"", ""scale"": [1.0, 1.0, 1.0], ""optical"": {""transparent"": 0, ""refraction"": 0.0, ""birefringence"": 0.0}}"
Brunovskyite,NaZrSi2O6(OH),"{""Na"": 1.0, ""Zr"": 1.0, ""Si"": 2.0, ""O"": 7.0, ""H"": 1.0}",283.4,#FFFFFF,triclinic,"{""system"": ""triclinic"", ""scale"": [0.7, 1.0, 1.3], ""optical"": {""transparent"": 1, ""refraction"": 1.5, ""birefringence"": 0.01}}"
Brushite,Ca(PO3OH)·2H2O,"{""Ca"": 1.0, ""P"": 1.0, ""O"": 6.0, ""H"": 5.0}",172.09,#FFFFFF,monoclinic,"{""system"": ""monoclinic"", ""scale"": [0.7, 1.0, 1.3], ""optical"": {""transparent"": 1, ""refraction"": 1.5, ""birefringence"": 0.01}}"
Bubnovaite,K2Na8Ca(SO4)6,"{""K"": 2.0, ""Na"": 8.0, ""Ca"": 1.0, ""S"": 6.0, ""O"": 24.0}",878.56,#FFFFFF,hexagonal,"{""system"": ""hexagonal"", ""scale"": [1.0, 1.0, 1.6], ""optical"": {""transparent"": 1, ""refraction"": 1.5, ""birefringence"": 0.01}}"
Buchwaldite,NaCa(PO4),"{""Na"": 1.0, ""Ca"": 1.0, ""P"": 1.0, ""O"": 4.0}",158.04,#FFFFFF,orthorhombic,"{""system"": ""orthorhombic"", ""scale"": [0.8, 1.0, 1.2], ""optical"": {""transparent"": 1, ""refraction"": 1.5, ""birefringence"": 0.01}}"
Buckhornite,(Pb2BiS3)(AuTe2),"{""Pb"": 2.0, ""Bi"": 1.0, ""S"": 3.0, ""Au"": 1.0, ""Te"": 2.0}",1171.73,#708090,orthorhombic,"{""system"": ""orthorhombic"", ""scale"": [0.8, 1.0, 1.2], ""optical"": {""transparent"": 0, ""refraction"": 0.0, ""birefringence"": 0.0}}"
Buddingtonite,(NH4)(AlSi3)O8,"{""N"": 1.0, ""H"": 4.0, ""Al"": 1.0, ""Si"": 3.0, ""O"": 8.0}",257.29,#FFFFFF,monoclinic,"{""system"": ""monoclinic"", ""scale"": [0.7, 1.0, 1.3], ""optical"": {""transparent"": 1, ""refraction"": 1.5, ""birefringence"": 0.01}}"
Bukovite,(Cu3Fe)Tl2Se4,"{""Cu"": 3.0, ""Fe"": 1.0, ""Tl"": 2.0, ""Se"": 4.0}",971.1,#556B2F,tetragonal,"{""system"": ""tetragonal"", ""scale"": [1.0, 1.0, 1.4], ""optical"": {""transparent"": 0, ""refraction"": 0.0, ""birefringence"": 0.0}}"
Bukovskyite,Fe3+2(AsO4)(SO4)(OH)·7H2O,"{""Fe"": 2.0, ""As"": 1.0, ""O"": 16.0, ""S"": 1.0, ""H"": 15.0}",489.8,#556B2F,triclinic,"{""system"": ""triclinic"", ""scale"": [0.7, 1.0, 1.3], ""optical"": {""transparent"": 0, ""refraction"": 0.0, ""birefringence"": 0.0}}"
Bulachite,Al6(AsO4)3(OH)9(H2O)4·2H2O,"{""Al"": 6.0, ""As"": 3.0, ""O"": 27.0, ""H"": 21.0}",839.81,#FFFFFF,orthorhombic,"{""system"": ""orthorhombic"", ""scale"": [0.8, 1.0, 1.2], ""optical"": {""transparent"": 1, ""refraction"": 1.5, ""birefringence"": 0.01}}"
Bultfonteinite,Ca2SiO3(OH)F·H2O,"{""Ca"": 2.0, ""Si"": 1.0, ""O"": 5.0, ""H"": 3.0, ""F"": 1.0}",210.27,#FFFFFF,triclinic,"{""system"": ""triclinic"", ""scale"": [0.7, 1.0, 1.3], ""optical"": {""transparent"": 1, ""refraction"": 1.5, ""birefringence"": 0.01}}"