name,formula,elements,density,color,crystal_system,dna
Stibarsen,SbAs,"{""Sb"": 1.0, ""As"": 1.0}",196.68,#808080,hexagonal,"{""system"": ""hexagonal"", ""scale"": [1.0, 1.0, 1.6], ""optical"": {""transparent"": 0, ""refraction"": 0.0, ""birefringence"": 0.0}}"
Stibiconite,Sb3+Sb5+2O6(OH),"{""Sb"": 3.0, ""O"": 7.0, ""H"": 1.0}",478.29,#A9A9A9,cubic,"{""system"": ""cubic"", ""scale"": [1.0, 1.0, 1.0], ""optical"": {""transparent"": 0, ""refraction"": 0.0, ""birefringence"": 0.0}}"
Stibioclaudetite,AsSbO3,"{""As"": 1.0, ""Sb"": 1.0, ""O"": 3.0}",244.68,#808080,monoclinic,"{""system"": ""monoclinic"", ""scale"": [0.7, 1.0, 1.3], ""optical"": {""transparent"": 0, ""refraction"": 0.0, ""birefringence"": 0.0}}"
Stibiocolumbite,SbNbO4,"{""Sb"": 1.0, ""Nb"": 1.0, ""O"": 4.0}",278.67,#A9A9A9,orthorhombic,"{""system"": ""orthorhombic"", ""scale"": [0.8, 1.0, 1.2], ""optical"": {""transparent"": 0, ""refraction"": 0.0, ""birefringence"": 0.0}}"
Stibiogoldfieldite,Cu6Cu6(Sb2Te2)S13,"{""Cu"": 12.0, ""Sb"": 2.0, ""Te"": 2.0, ""S"": 13.0}",1678.1,#A9A9A9,cubic,"{""system"": ""cubic"", ""scale"": [1.0, 1.0, 1.0], ""optical"": {""transparent"": 0, ""refraction"": 0.0, ""birefringence"": 0.0}}"
Stibiopalladinite,Pd5Sb2,"{""Pd"": 5.0, ""Sb"": 2.0}",775.62,#A9A9A9,hexagonal,"{""system"": ""hexagonal"", ""scale"": [1.0, 1.0, 1.6], ""optical"": {""transparent"": 0, ""refraction"": 0.0, ""birefringence"": 0.0}}"
Stibiotantalite,Sb3+TaO4,"{""Sb"": 1.0, ""Ta"": 1.0, ""O"": 4.0}",366.71,#A9A9A9,orthorhombic,"{""system"": ""orthorhombic"", ""scale"": [0.8, 1.0, 1.2], ""optical"": {""transparent"": 0, ""refraction"": 0.0, ""birefringence"": 0.0}}"
Stibioustalecite,Cu6Cu6(Sb2Te2)Se13,"{""Cu"": 12.0, ""Sb"": 2.0, ""Te"": 2.0, ""Se"": 13.0}",2287.8,#FFFFFF,cubic,"{""system"": ""cubic"", ""scale"": [1.0, 1.0, 1.0], ""optical"": {""transparent"": 1, ""refraction"": 1.5, ""birefringence"": 0.0}}"
Stibivanite,Sb3+2V4+O5,"{""Sb"": 2.0, ""V"": 1.0, ""O"": 5.0}",374.46,#A9A9A9,orthorhombic,"{""system"": ""orthorhombic"", ""scale"": [0.8, 1.0, 1.2], ""optical"": {""transparent"": 0, ""refraction"": 0.0, ""birefringence"": 0.0}}"
Stibnite,Sb2S3,"{""Sb"": 2.0, ""S"": 3.0}",339.7,#A9A9A9,orthorhombic,"{""system"": ""orthorhombic"", ""scale"": [0.8, 1.0, 1.2], ""optical"": {""transparent"": 0, ""refraction"": 0.0, ""birefringence"": 0.0}}"
Stichtite,Mg6Cr2(OH)16(CO3)·4H2O,"{""Mg"": 6.0, ""Cr"": 2.0, ""O"": 23.0, ""H"": 24.0, ""C"": 1.0}",654.06,#FFFFFF,hexagonal,"{""system"": ""hexagonal"", ""scale"": [1.0, 1.0, 1.6], ""optical"": {""transparent"": 1, ""refraction"": 1.5, ""birefringence"": 0.01}}"
Stilbite-Ca,NaCa4(Si27Al9)O72·28H2O,"{""Na"": 1.0, ""Ca"": 4.0, ""Si"": 27.0, ""Al"": 9.0, ""O"": 100.0, ""H"": 56.0}",2841.01,#FFFFFF,monoclinic,"{""system"": ""monoclinic"", ""scale"": [0.7, 1.0, 1.3], ""optical"": {""transparent"": 1, ""refraction"": 1.5, ""birefringence"": 0.01}}"
Stilbite-Na,Na9(Si27Al9)O72·28H2O,"{""Na"": 9.0, ""Si"": 27.0, ""Al"": 9.0, ""O"": 100.0, ""H"": 56.0}",2864.61,#FFFFFF,monoclinic,"{""system"": ""monoclinic"", ""scale"": [0.7, 1.0, 1.3], ""optical"": {""transparent"": 1, ""refraction"": 1.5, ""birefringence"": 0.01}}"
Stillwaterite,Pd8As3,"{""Pd"": 8.0, ""As"": 3.0}",1076.12,#808080,hexagonal,"{""system"": ""hexagonal"", ""scale"": [1.0, 1.0, 1.6], ""optical"": {""transparent"": 0, ""refraction"": 0.0, ""birefringence"": 0.0}}"
Stillwellite-(Ce),CeBSiO5,"{""Ce"": 1.0, ""B"": 1.0, ""Si"": 1.0, ""O"": 5.0}",259.02,#FFFFFF,hexagonal,"{""system"": ""hexagonal"", ""scale"": [1.0, 1.0, 1.6], ""optical"": {""transparent"": 1, ""refraction"": 1.5, ""birefringence"": 0.01}}"
Stillwellite-(La),LaBSiO5,"{""La"": 1.0, ""B"": 1.0, ""Si"": 1.0, ""O"": 5.0}",257.81,#FFFFFF,hexagonal,"{""system"": ""hexagonal"", ""scale"": [1.0, 1.0, 1.6], ""optical"": {""transparent"": 1, ""refraction"": 1.5, ""birefringence"": 0.01}}"
Stishovite,SiO2,"{""Si"": 1.0, ""O"": 2.0}",60.09,#FFFFFF,tetragonal,"{""system"": ""tetragonal"", ""scale"": [1.0, 1.0, 1.4], ""optical"": {""transparent"": 1, ""refraction"": 1.5, ""birefringence"": 0.01}}"
Stofflerite,CaAl2Si2O8,"{""Ca"": 1.0, ""Al"": 2.0, ""Si"": 2.0, ""O"": 8.0}",278.22,#FFFFFF,tetragonal,"{""system"": ""tetragonal"", ""scale"": [1.0, 1.0, 1.4], ""optical"": {""transparent"": 1, ""refraction"": 1.5, ""birefringence"": 0.01}}"
Stoiberite,Cu5O2(VO4)2,"{""Cu"": 5.0, ""O"": 10.0, ""V"": 2.0}",579.63,#00BFFF,monoclinic,"{""system"": ""monoclinic"", ""scale"": [0.7, 1.0, 1.3], ""optical"": {""transparent"": 0, ""refraction"": 0.0, ""birefringence"": 0.0}}"
Stolperite,AlCu,"{""Al"": 1.0, ""Cu"": 1.0}",90.53,#00BFFF,cubic,"{""system"": ""cubic"", ""scale"": [1.0, 1.0, 1.0], ""optical"": {""transparent"": 0, ""refraction"": 0.0, ""birefringence"": 0.0}}"
Stolzite,Pb(WO4),"{""Pb"": 1.0, ""W"": 1.0, ""O"": 4.0}",455.04,#FFFFFF,tetragonal,"{""system"": ""tetragonal"", ""scale"": [1.0, 1.0, 1.4], ""optical"": {""transparent"": 1, ""refraction"": 1.5, ""birefringence"": 0.01}}"
Stoppaniite,Fe3+2Be3Si6O18·H2O,"{""Fe"": 2.0, ""Be"": 3.0, ""Si"": 6.0, ""O"": 19.0, ""H"": 2.0}",613.29,#556B2F,hexagonal,"{""system"": ""hexagonal"", ""scale"": [1.0, 1.0, 1.6], ""optical"": {""transparent"": 0, ""refraction"": 0.0, ""birefringence"": 0.0}}"
Stottite,Fe2+Ge(OH)6,"{""Fe"": 1.0, ""Ge"": 1.0, ""O"": 6.0, ""H"": 6.0}",230.53,#556B2F,monoclinic,"{""system"": ""monoclinic"", ""scale"": [0.7, 1.0, 1.3], ""optical"": {""transparent"": 0, ""refraction"": 0.0, ""birefringence"": 0.0}}"
Stracherite,BaCa6(SiO4)2[(PO4)(CO3)]F,"{""Ba"": 1.0, ""Ca"": 6.0, ""Si"": 2.0, ""O"": 15.0, ""P"": 1.0, ""C"": 1.0, ""F"": 1.0}",735.97,#FFFFFF,hexagonal,"{""system"": ""hexagonal"", ""scale"": [1.0, 1.0, 1.6], ""optical"": {""transparent"": 1, ""refraction"": 1.5, ""birefringence"": 0.01}}"
Strassmannite,Al(UO2)(SO4)2F·16H2O,"{""Al"": 1.0, ""U"": 1.0, ""O"": 26.0, ""S"": 2.0, ""F"": 1.0, ""H"": 32.0}",796.39,#FFFFFF,monoclinic,"{""system"": ""monoclinic"", ""scale"": [0.7, 1.0, 1.3], ""optical"": {""transparent"": 1, ""refraction"": 1.5, ""birefringence"": 0.01}}"
Strelkinite,Na2(UO2)2(VO4)2·6H2O,"{""Na"": 2.0, ""U"": 2.0, ""O"": 18.0, ""V"": 2.0, ""H"": 12.0}",924.02,#FFFFFF,orthorhombic,"{""system"": ""orthorhombic"", ""scale"": [0.8, 1.0, 1.2], ""optical"": {""transparent"": 1, ""refraction"": 1.5, ""birefringence"": 0.01}}"
Strengite,Fe3+(PO4)·2H2O,"{""Fe"": 1.0, ""P"": 1.0, ""O"": 6.0, ""H"": 4.0}",186.85,#556B2F,orthorhombic,"{""system"": ""orthorhombic"", ""scale"": [0.8, 1.0, 1.2], ""optical"": {""transparent"": 0, ""refraction"": 0.0, ""birefringence"": 0.0}}"
Stringhamite,CaCu(SiO4)·H2O,"{""Ca"": 1.0, ""Cu"": 1.0, ""Si"": 1.0, ""O"": 5.0, ""H"": 2.0}",213.74,#FFFFFF,monoclinic,"{""system"": ""monoclinic"", ""scale"": [0.7, 1.0, 1.3], ""optical"": {""transparent"": 1, ""refraction"": 1.5, ""birefringence"": 0.01}}"
Stromeyerite,CuAgS,"{""Cu"": 1.0, ""Ag"": 1.0, ""S"": 1.0}",203.48,#A9A9A9,orthorhombic,"{""system"": ""orthorhombic"", ""scale"": [0.8, 1.0, 1.2], ""optical"": {""transparent"": 0, ""refraction"": 0.0, ""birefringence"": 0.0}}"
Stronadelphite,Sr5(PO4)3F,"{""Sr"": 5.0, ""P"": 3.0, ""O"": 12.0, ""F"": 1.0}",742.01,#FFFFFF,hexagonal,"{""system"": ""hexagonal"", ""scale"": [1.0, 1.0, 1.6], ""optical"": {""transparent"": 1, ""refraction"": 1.5, ""birefringence"": 0.01}}"
Stronalsite,Na2SrAl4Si4O16,"{""Na"": 2.0, ""Sr"": 1.0, ""Al"": 4.0, ""Si"": 4.0, ""O"": 16.0}",609.88,#FFFFFF,orthorhombic,"{""system"": ""orthorhombic"", ""scale"": [0.8, 1.0, 1.2], ""optical"": {""transparent"": 1, ""refraction"": 1.5, ""birefringence"": 0.01}}"
Strontianite,Sr(CO3),"{""Sr"": 1.0, ""C"": 1.0, ""O"": 3.0}",147.63,#FFFFFF,orthorhombic,"{""system"": ""orthorhombic"", ""scale"": [0.8, 1.0, 1.2], ""optical"": {""transparent"": 1, ""refraction"": 1.5, ""birefringence"": 0.01}}"
Strontioborite,Sr[B8O11(OH)4],"{""Sr"": 1.0, ""B"": 8.0, ""O"": 15.0, ""H"": 4.0}",418.13,#FFFFFF,monoclinic,"{""system"": ""monoclinic"", ""scale"": [0.7, 1.0, 1.3], ""optical"": {""transparent"": 1, ""refraction"": 1.5, ""birefringence"": 0.01}}"
Strontiodresserite,SrAl2(CO3)2(OH)4·H2O,"{""Sr"": 1.0, ""Al"": 2.0, ""C"": 2.0, ""O"": 11.0, ""H"": 6.0}",347.65,#FFFFFF,orthorhombic,"{""system"": ""orthorhombic"", ""scale"": [0.8, 1.0, 1.2], ""optical"": {""transparent"": 1, ""refraction"": 1.5, ""birefringence"": 0.01}}"
Strontiofluorite,SrF2,"{""Sr"": 1.0, ""F"": 2.0}",125.62,#FFFFFF,cubic,"{""system"": ""cubic"", ""scale"": [1.0, 1.0, 1.0], ""optical"": {""transparent"": 1, ""refraction"": 1.5, ""birefringence"": 0.0}}"
Strontioginorite,CaSrB14O20(OH)6·5H2O,"{""Ca"": 1.0, ""Sr"": 1.0, ""B"": 14.0, ""O"": 31.0, ""H"": 16.0}",791.17,#FFFFFF,monoclinic,"{""system"": ""monoclinic"", ""scale"": [0.7, 1.0, 1.3], ""optical"": {""transparent"": 1, ""refraction"": 1.5, ""birefringence"": 0.01}}"
Strontiohurlbutite,SrBe2(PO4)2,"{""Sr"": 1.0, ""Be"": 2.0, ""P"": 2.0, ""O"": 8.0}",295.58,#FFFFFF,monoclinic,"{""system"": ""monoclinic"", ""scale"": [0.7, 1.0, 1.3], ""optical"": {""transparent"": 1, ""refraction"": 1.5, ""birefringence"": 0.01}}"
Strontio-orthojoaquinite,NaSr4Fe3+Ti2Si8O24(OH)4,"{""Na"": 1.0, ""Sr"": 4.0, ""Fe"": 1.0, ""Ti"": 2.0, ""Si"": 8.0, ""O"": 28.0, ""H"": 4.0}",1201.81,#556B2F,orthorhombic,"{""system"": ""orthorhombic"", ""scale"": [0.8, 1.0, 1.2], ""optical"": {""transparent"": 0, ""refraction"": 0.0, ""birefringence"": 0.0}}"
Struvite,(NH4)Mg(PO4)·6H2O,"{""N"": 1.0, ""H"": 16.0, ""Mg"": 1.0, ""P"": 1.0, ""O"": 10.0}",245.42,#FFFFFF,orthorhombic,"{""system"": ""orthorhombic"", ""scale"": [0.8, 1.0, 1.2], ""optical"": {""transparent"": 1, ""refraction"": 1.5, ""birefringence"": 0.01}}"
Struvite-(K),KMg(PO4)·6H2O,"{""K"": 1.0, ""Mg"": 1.0, ""P"": 1.0, ""O"": 10.0, ""H"": 12.0}",266.48,#FFFFFF,orthorhombic,"{""system"": ""orthorhombic"", ""scale"": [0.8, 1.0, 1.2], ""optical"": {""transparent"": 1, ""refraction"": 1.5, ""birefringence"": 0.01}}"
Studenitsite,NaCa2B9O14(OH)4·2H2O,"{""Na"": 1.0, ""Ca"": 2.0, ""B"": 9.0, ""O"": 20.0, ""H"": 8.0}",528.5,#FFFFFF,monoclinic,"{""system"": ""monoclinic"", ""scale"": [0.7, 1.0, 1.3], ""optical"": {""transparent"": 1, ""refraction"": 1.5, ""birefringence"": 0.01}}"
Studtite,(UO2)(O2)(H2O)2·2H2O,"{""U"": 1.0, ""O"": 8.0, ""H"": 8.0}",374.09,#ADFF2F,monoclinic,"{""system"": ""monoclinic"", ""scale"": [0.7, 1.0, 1.3], ""optical"": {""transparent"": 0, ""refraction"": 0.0, ""birefringence"": 0.0}}"
Stumpflite,PtSb,"{""Pt"": 1.0, ""Sb"": 1.0}",316.84,#A9A9A9,hexagonal,"{""system"": ""hexagonal"", ""scale"": [1.0, 1.0, 1.6], ""optical"": {""transparent"": 0, ""refraction"": 0.0, ""birefringence"": 0.0}}"
Stunorthropite,(NH4)4[Mo2O6(MoO4)2],"{""N"": 4.0, ""H"": 16.0, ""Mo"": 4.0, ""O"": 14.0}",679.97,#FFFFFF,triclinic,"{""system"": ""triclinic"", ""scale"": [0.7, 1.0, 1.3], ""optical"": {""transparent"": 1, ""refraction"": 1.5, ""birefringence"": 0.01}}"
Suanite,Mg2B2O5,"{""Mg"": 2.0, ""B"": 2.0, ""O"": 5.0}",150.24,#FFFFFF,monoclinic,"{""system"": ""monoclinic"", ""scale"": [0.7, 1.0, 1.3], ""optical"": {""transparent"": 1, ""refraction"": 1.5, ""birefringence"": 0.01}}"
Sudburyite,PdSb,"{""Pd"": 1.0, ""Sb"": 1.0}",228.18,#A9A9A9,hexagonal,"{""system"": ""hexagonal"", ""scale"": [1.0, 1.0, 1.6], ""optical"": {""transparent"": 0, ""refraction"": 0.0, ""birefringence"": 0.0}}"
Sudoite,Mg2Al3(Si3Al)O10(OH)8,"{""Mg"": 2.0, ""Al"": 4.0, ""Si"": 3.0, ""O"": 18.0, ""H"": 8.0}",536.87,#FFFFFF,monoclinic,"{""system"": ""monoclinic"", ""scale"": [0.7, 1.0, 1.3], ""optical"": {""transparent"": 1, ""refraction"": 1.5, ""birefringence"": 0.01}}"
Sudovikovite,PtSe2,"{""Pt"": 1.0, ""Se"": 2.0}",353.0,#FFFFFF,hexagonal,"{""system"": ""hexagonal"", ""scale"": [1.0, 1.0, 1.6], ""optical"": {""transparent"": 1, ""refraction"": 1.5, ""birefringence"": 0.01}}"
Suessite,Fe3Si,"{""Fe"": 3.0, ""Si"": 1.0}",195.64,#8B4513,cubic,"{""system"": ""cubic"", ""scale"": [1.0, 1.0, 1.0], ""optical"": {""transparent"": 0, ""refraction"": 0.0, ""birefringence"": 0.0}}"
Sugarwhiteite,Pb2Te5O12,"{""Pb"": 2.0, ""Te"": 5.0, ""O"": 12.0}",1244.4,#FFFFFF,monoclinic,"{""system"": ""monoclinic"", ""scale"": [0.7, 1.0, 1.3], ""optical"": {""transparent"": 1, ""refraction"": 1.5, ""birefringence"": 0.01}}"
Sugilite,KNa2Fe3+2(Li3Si12)O30,"{""K"": 1.0, ""Na"": 2.0, ""Fe"": 2.0, ""Li"": 3.0, ""Si"": 12.0, ""O"": 30.0}",1034.68,#556B2F,hexagonal,"{""system"": ""hexagonal"", ""scale"": [1.0, 1.0, 1.6], ""optical"": {""transparent"": 0, ""refraction"": 0.0, ""birefringence"": 0.0}}"
Suhailite,(NH4)Fe2+3(Si3Al)O10(OH)2,"{""N"": 1.0, ""H"": 6.0, ""Fe"": 3.0, ""Si"": 3.0, ""Al"": 1.0, ""O"": 12.0}",490.86,#556B2F,,"{""system"": """", ""scale"": [1.0, 1.0, 1.0], ""optical"": {""transparent"": 0, ""refraction"": 0.0, ""birefringence"": 0.0}}"
Sulfhydrylbystrite,Na5K2Ca[Al6Si6O24](S5)2-(SH)-,"{""Na"": 5.0, ""K"": 2.0, ""Ca"": 1.0, ""Al"": 6.0, ""Si"": 6.0, ""O"": 24.0, ""S"": 6.0, ""H"": 1.0}",1141.02,#FFFFFF,hexagonal,"{""system"": ""hexagonal"", ""scale"": [1.0, 1.0, 1.6], ""optical"": {""transparent"": 1, ""refraction"": 1.5, ""birefringence"": 0.01}}"
Sulphohalite,Na6(SO4)2ClF,"{""Na"": 6.0, ""S"": 2.0, ""O"": 8.0, ""Cl"": 1.0, ""F"": 1.0}",384.51,#FFFFFF,cubic,"{""system"": ""cubic"", ""scale"": [1.0, 1.0, 1.0], ""optical"": {""transparent"": 1, ""refraction"": 1.5, ""birefringence"": 0.0}}"
Sulphotsumoite,Bi3Te2S,"{""Bi"": 3.0, ""Te"": 2.0, ""S"": 1.0}",914.2,#A9A9A9,hexagonal,"{""system"": ""hexagonal"", ""scale"": [1.0, 1.0, 1.6], ""optical"": {""transparent"": 0, ""refraction"": 0.0, ""birefringence"": 0.0}}"
Sulphur,S,"{""S"": 1.0}",32.06,#A9A9A9,monoclinic,"{""system"": ""monoclinic"", ""scale"": [0.7, 1.0, 1.3], ""optical"": {""transparent"": 0, ""refraction"": 0.0, ""birefringence"": 0.0}}"
Sulvanite,Cu3VS4,"{""Cu"": 3.0, ""V"": 1.0, ""S"": 4.0}",369.83,#A9A9A9,cubic,"{""system"": ""cubic"", ""scale"": [1.0, 1.0, 1.0], ""optical"": {""transparent"": 0, ""refraction"": 0.0, ""birefringence"": 0.0}}"
Sundiusite,Pb10(SO4)O8Cl2,"{""Pb"": 10.0, ""S"": 1.0, ""O"": 12.0, ""Cl"": 2.0}",2366.96,#FFFFFF,monoclinic,"{""system"": ""monoclinic"", ""scale"": [0.7, 1.0, 1.3], ""optical"": {""transparent"": 1, ""refraction"": 1.5, ""birefringence"": 0.01}}"
Sunshuite,FeBi2S4,"{""Fe"": 1.0, ""Bi"": 2.0, ""S"": 4.0}",602.05,#DAA520,monoclinic,"{""system"": ""monoclinic"", ""scale"": [0.7, 1.0, 1.3], ""optical"": {""transparent"": 0, ""refraction"": 0.0, ""birefringence"": 0.0}}"
Suolunite,Ca2Si2O5(OH)2·H2O,"{""Ca"": 2.0, ""Si"": 2.0, ""O"": 8.0, ""H"": 4.0}",268.37,#FFFFFF,orthorhombic,"{""system"": ""orthorhombic"", ""scale"": [0.8, 1.0, 1.2], ""optical"": {""transparent"": 1, ""refraction"": 1.5, ""birefringence"": 0.01}}"
Surinamite,Mg3Al3O(Si3BeAlO15),"{""Mg"": 3.0, ""Al"": 4.0, ""O"": 16.0, ""Si"": 3.0, ""Be"": 1.0}",530.13,#FFFFFF,monoclinic,"{""system"": ""monoclinic"", ""scale"": [0.7, 1.0, 1.3], ""optical"": {""transparent"": 1, ""refraction"": 1.5, ""birefringence"": 0.01}}"
Susannite,Pb4(SO4)(CO3)2(OH)2,"{""Pb"": 4.0, ""S"": 1.0, ""O"": 12.0, ""C"": 2.0, ""H"": 2.0}",1078.9,#FFFFFF,hexagonal,"{""system"": ""hexagonal"", ""scale"": [1.0, 1.0, 1.6], ""optical"": {""transparent"": 1, ""refraction"": 1.5, ""birefringence"": 0.01}}"
Suzukiite,BaV4+Si2O7,"{""Ba"": 1.0, ""V"": 1.0, ""Si"": 2.0, ""O"": 7.0}",356.45,#FFFFFF,orthorhombic,"{""system"": ""orthorhombic"", ""scale"": [0.8, 1.0, 1.2], ""optical"": {""transparent"": 1, ""refraction"": 1.5, ""birefringence"": 0.01}}"
Svabite,Ca5(AsO4)3F,"{""Ca"": 5.0, ""As"": 3.0, ""O"": 12.0, ""F"": 1.0}",636.16,#FFFFFF,triclinic,"{""system"": ""triclinic"", ""scale"": [0.7, 1.0, 1.3], ""optical"": {""transparent"": 1, ""refraction"": 1.5, ""birefringence"": 0.01}}"
Svanbergite,SrAl3(SO4)(PO4)(OH)6,"{""Sr"": 1.0, ""Al"": 3.0, ""S"": 1.0, ""O"": 14.0, ""P"": 1.0, ""H"": 6.0}",461.64,#FFFFFF,hexagonal,"{""system"": ""hexagonal"", ""scale"": [1.0, 1.0, 1.6], ""optical"": {""transparent"": 1, ""refraction"": 1.5, ""birefringence"": 0.01}}"
Sveinbergeite,(H2O)2[Ca(H2O)](Fe2+6Fe3+)Ti2(Si4O12)2O2(OH)4[(OH)(H2O)],"{""H"": 13.0, ""O"": 35.0, ""Ca"": 1.0, ""Fe"": 7.0, ""Ti"": 2.0, ""Si"": 8.0}",1324.59,#556B2F,triclinic,"{""system"": ""triclinic"", ""scale"": [0.7, 1.0, 1.3], ""optical"": {""transparent"": 0, ""refraction"": 0.0, ""birefringence"": 0.0}}"
Sveite,KAl7(NO3)4(OH)16Cl2·8H2O,"{""K"": 1.0, ""Al"": 7.0, ""N"": 4.0, ""O"": 36.0, ""H"": 32.0, ""Cl"": 2.0}",963.16,#FFFFFF,monoclinic,"{""system"": ""monoclinic"", ""scale"": [0.7, 1.0, 1.3], ""optical"": {""transparent"": 1, ""refraction"": 1.5, ""birefringence"": 0.01}}"
Svenekite,Ca[AsO2(OH)2]2,"{""Ca"": 1.0, ""As"": 2.0, ""O"": 8.0, ""H"": 4.0}",321.95,#FFFFFF,triclinic,"{""system"": ""triclinic"", ""scale"": [0.7, 1.0, 1.3], ""optical"": {""transparent"": 1, ""refraction"": 1.5, ""birefringence"": 0.01}}"
Svornostite-(K),K2Mg[(UO2)(SO4)2]2·8H2O,"{""K"": 2.0, ""Mg"": 1.0, ""U"": 2.0, ""O"": 28.0, ""S"": 4.0, ""H"": 16.0}",1170.94,#FFFFFF,orthorhombic,"{""system"": ""orthorhombic"", ""scale"": [0.8, 1.0, 1.2], ""optical"": {""transparent"": 1, ""refraction"": 1.5, ""birefringence"": 0.01}}"
Svornostite-(NH4),(NH4)2Mg(UO2)2(SO4)4(H2O)8,"{""N"": 2.0, ""H"": 24.0, ""Mg"": 1.0, ""U"": 2.0, ""O"": 28.0, ""S"": 4.0}",1128.82,#FFFFFF,orthorhombic,"{""system"": ""orthorhombic"", ""scale"": [0.8, 1.0, 1.2], ""optical"": {""transparent"": 1, ""refraction"": 1.5, ""birefringence"": 0.01}}"
Svyatoslavite,Ca(Al2Si2O8),"{""Ca"": 1.0, ""Al"": 2.0, ""Si"": 2.0, ""O"": 8.0}",278.22,#FFFFFF,monoclinic,"{""system"": ""monoclinic"", ""scale"": [0.7, 1.0, 1.3], ""optical"": {""transparent"": 1, ""refraction"": 1.5, ""birefringence"": 0.01}}"
Svyazhinite,MgAl(SO4)2F·14H2O,"{""Mg"": 1.0, ""Al"": 1.0, ""S"": 2.0, ""O"": 22.0, ""F"": 1.0, ""H"": 28.0}",514.63,#FFFFFF,triclinic,"{""system"": ""triclinic"", ""scale"": [0.7, 1.0, 1.3], ""optical"": {""transparent"": 1, ""refraction"": 1.5, ""birefringence"": 0.01}}"
Swaknoite,(NH4)2Ca(PO3OH)2·H2O,"{""N"": 2.0, ""H"": 12.0, ""Ca"": 1.0, ""P"": 2.0, ""O"": 9.0}",286.14,#FFFFFF,orthorhombic,"{""system"": ""orthorhombic"", ""scale"": [0.8, 1.0, 1.2], ""optical"": {""transparent"": 1, ""refraction"": 1.5, ""birefringence"": 0.01}}"
Swartzite,CaMg(UO2)(CO3)3·12H2O,"{""Ca"": 1.0, ""Mg"": 1.0, ""U"": 1.0, ""O"": 23.0, ""C"": 3.0, ""H"": 24.0}",730.64,#FFFFFF,monoclinic,"{""system"": ""monoclinic"", ""scale"": [0.7, 1.0, 1.3], ""optical"": {""transparent"": 1, ""refraction"": 1.5, ""birefringence"": 0.01}}"
Swedenborgite,NaBe4Sb5+O7,"{""Na"": 1.0, ""Be"": 4.0, ""Sb"": 1.0, ""O"": 7.0}",292.79,#FFFFFF,hexagonal,"{""system"": ""hexagonal"", ""scale"": [1.0, 1.0, 1.6], ""optical"": {""transparent"": 1, ""refraction"": 1.5, ""birefringence"": 0.01}}"
Sylvanite,AgAuTe4,"{""Ag"": 1.0, ""Au"": 1.0, ""Te"": 4.0}",815.24,#FFD700,monoclinic,"{""system"": ""monoclinic"", ""scale"": [0.7, 1.0, 1.3], ""optical"": {""transparent"": 0, ""refraction"": 0.0, ""birefringence"": 0.0}}"
Sylvite,KCl,"{""K"": 1.0, ""Cl"": 1.0}",74.55,#FFFFFF,cubic,"{""system"": ""cubic"", ""scale"": [1.0, 1.0, 1.0], ""optical"": {""transparent"": 1, ""refraction"": 1.5, ""birefringence"": 0.0}}"
Symesite,Pb10(SO4)O7Cl4·H2O,"{""Pb"": 10.0, ""S"": 1.0, ""O"": 12.0, ""Cl"": 4.0, ""H"": 2.0}",2439.88,#FFFFFF,triclinic,"{""system"": ""triclinic"", ""scale"": [0.7, 1.0, 1.3], ""optical"": {""transparent"": 1, ""refraction"": 1.5, ""birefringence"": 0.01}}"
Symplesite,Fe2+3(AsO4)2·8H2O,"{""Fe"": 3.0, ""As"": 2.0, ""O"": 16.0, ""H"": 16.0}",589.52,#556B2F,triclinic,"{""system"": ""triclinic"", ""scale"": [0.7, 1.0, 1.3], ""optical"": {""transparent"": 0, ""refraction"": 0.0, ""birefringence"": 0.0}}"
Synchysite-(Ce),CaCe(CO3)2F,"{""Ca"": 1.0, ""Ce"": 1.0, ""C"": 2.0, ""O"": 6.0, ""F"": 1.0}",319.22,#FFFFFF,monoclinic,"{""system"": ""monoclinic"", ""scale"": [0.7, 1.0, 1.3], ""optical"": {""transparent"": 1, ""refraction"": 1.5, ""birefringence"": 0.01}}"