name,formula,elements,density,color,crystal,pm_ids,gacha_weight
Stibiogoldfieldite,Cu6Cu6(Sb2Te2)S13,"{""Cu"": 12.0, ""Sb"": 2.0, ""Te"": 2.0, ""S"": 13.0}",1678.052,#A9A9A9,cubic,{33},797.0
Stibiopalladinite,Pd5Sb2,"{""Pd"": 5.0, ""Sb"": 2.0}",775.62,#A9A9A9,hexagonal,"{26,33,37}",1182.0
Stibiotantalite,Sb3+TaO4,"{""Sb"": 1.0, ""Ta"": 1.0, ""O"": 4.0}",366.706,#A9A9A9,orthorhombic,{34},564.0
Stibioustalecite,Cu6Cu6(Sb2Te2)Se13,"{""Cu"": 12.0, ""Sb"": 2.0, ""Te"": 2.0, ""Se"": 13.0}",2287.895,#FFFFFF,cubic,{33},797.0
Stibivanite,Sb3+2V4+O5,"{""Sb"": 2.0, ""V"": 1.0, ""O"": 5.0}",374.457,#A9A9A9,orthorhombic,{33},797.0
Stibnite,Sb2S3,"{""Sb"": 2.0, ""S"": 3.0}",339.7,#A9A9A9,orthorhombic,"{33,37,50,54}",1439.0
Stichtite,Mg6Cr2(OH)16(CO3)·4H2O,"{""Mg"": 6.0, ""Cr"": 2.0, ""O"": 23.0, ""H"": 24.0, ""C"": 1.0}",654.002,#FFFFFF,hexagonal,{13},67.0
Stilbite-Ca,NaCa4(Si27Al9)O72·28H2O,"{""Na"": 1.0, ""Ca"": 4.0, ""Si"": 27.0, ""Al"": 9.0, ""O"": 100.0, ""H"": 56.0}",2840.783,#FFFFFF,monoclinic,"{10,14,16,25,42,47}",2474.0
Stilbite-Na,Na9(Si27Al9)O72·28H2O,"{""Na"": 9.0, ""Si"": 27.0, ""Al"": 9.0, ""O"": 100.0, ""H"": 56.0}",2864.391,#FFFFFF,monoclinic,"{8,12,47}",2220.0
Stillwaterite,Pd8As3,"{""Pd"": 8.0, ""As"": 3.0}",1076.126,#808080,hexagonal,"{33,37}",932.0
Stillwellite-(Ce),CeBSiO5,"{""Ce"": 1.0, ""B"": 1.0, ""Si"": 1.0, ""O"": 5.0}",259.01,#FFFFFF,hexagonal,"{31,35}",1082.0
Stillwellite-(La),LaBSiO5,"{""La"": 1.0, ""B"": 1.0, ""Si"": 1.0, ""O"": 5.0}",257.8,#FFFFFF,hexagonal,{},1.0
Stishovite,SiO2,"{""Si"": 1.0, ""O"": 2.0}",60.083,#FFFFFF,tetragonal,"{6,30}",221.0
Stofflerite,CaAl2Si2O8,"{""Ca"": 1.0, ""Al"": 2.0, ""Si"": 2.0, ""O"": 8.0}",278.204,#FFFFFF,tetragonal,{6},205.0
Stoiberite,Cu5O2(VO4)2,"{""Cu"": 5.0, ""O"": 10.0, ""V"": 2.0}",579.604,#00BFFF,monoclinic,"{45,55}",688.0
Stolperite,AlCu,"{""Al"": 1.0, ""Cu"": 1.0}",90.528,#00BFFF,cubic,{6},205.0
Stolzite,Pb(WO4),"{""Pb"": 1.0, ""W"": 1.0, ""O"": 4.0}",455.036,#FFFFFF,tetragonal,{47},1998.0
Stoppaniite,Fe3+2Be3Si6O18·H2O,"{""Fe"": 2.0, ""Be"": 3.0, ""Si"": 6.0, ""O"": 19.0, ""H"": 2.0}",613.2336,#556B2F,hexagonal,"{10,34}",671.0
Stottite,Fe2+Ge(OH)6,"{""Fe"": 1.0, ""Ge"": 1.0, ""O"": 6.0, ""H"": 6.0}",230.517,#556B2F,monoclinic,{47},1998.0
Stracherite,BaCa6(SiO4)2[(PO4)(CO3)]F,"{""Ba"": 1.0, ""Ca"": 6.0, ""Si"": 2.0, ""O"": 15.0, ""P"": 1.0, ""C"": 1.0, ""F"": 1.0}",735.936,#FFFFFF,hexagonal,{51},128.0
Strassmannite,Al(UO2)(SO4)2F·16H2O,"{""Al"": 1.0, ""U"": 1.0, ""O"": 26.0, ""S"": 2.0, ""F"": 1.0, ""H"": 32.0}",796.36,#FFFFFF,monoclinic,{47},1998.0
Strelkinite,Na2(UO2)2(VO4)2·6H2O,"{""Na"": 2.0, ""U"": 2.0, ""O"": 18.0, ""V"": 2.0, ""H"": 12.0}",924.002,#FFFFFF,orthorhombic,{47},1998.0
Strengite,Fe3+(PO4)·2H2O,"{""Fe"": 1.0, ""P"": 1.0, ""O"": 6.0, ""H"": 4.0}",186.845,#556B2F,orthorhombic,"{21,22,47}",2324.0
Stringhamite,CaCu(SiO4)·H2O,"{""Ca"": 1.0, ""Cu"": 1.0, ""Si"": 1.0, ""O"": 5.0, ""H"": 2.0}",213.72,#FFFFFF,monoclinic,{47},1998.0
Stromeyerite,CuAgS,"{""Cu"": 1.0, ""Ag"": 1.0, ""S"": 1.0}",203.476,#A9A9A9,orthorhombic,{33},797.0
Stronadelphite,Sr5(PO4)3F,"{""Sr"": 5.0, ""P"": 3.0, ""O"": 12.0, ""F"": 1.0}",742.008,#FFFFFF,hexagonal,{36},291.0
Stronalsite,Na2SrAl4Si4O16,"{""Na"": 2.0, ""Sr"": 1.0, ""Al"": 4.0, ""Si"": 4.0, ""O"": 16.0}",609.852,#FFFFFF,orthorhombic,"{23,32,35,36}",1827.0
Strontianite,Sr(CO3),"{""Sr"": 1.0, ""C"": 1.0, ""O"": 3.0}",147.628,#FFFFFF,orthorhombic,"{23,36,40,47}",3006.0
Strontioborite,Sr[B8O11(OH)4],"{""Sr"": 1.0, ""B"": 8.0, ""O"": 15.0, ""H"": 4.0}",418.117,#FFFFFF,monoclinic,{25},210.0
Strontiodresserite,SrAl2(CO3)2(OH)4·H2O,"{""Sr"": 1.0, ""Al"": 2.0, ""C"": 2.0, ""O"": 11.0, ""H"": 6.0}",347.643,#FFFFFF,orthorhombic,"{31,35}",1082.0
Strontiofluorite,SrF2,"{""Sr"": 1.0, ""F"": 2.0}",125.616,#FFFFFF,cubic,{35},726.0
Strontioginorite,CaSrB14O20(OH)6·5H2O,"{""Ca"": 1.0, ""Sr"": 1.0, ""B"": 14.0, ""O"": 31.0, ""H"": 16.0}",791.135,#FFFFFF,monoclinic,{47},1998.0
Strontiohurlbutite,SrBe2(PO4)2,"{""Sr"": 1.0, ""Be"": 2.0, ""P"": 2.0, ""O"": 8.0}",295.5844,#FFFFFF,monoclinic,{34},564.0
Strontio-orthojoaquinite,NaSr4Fe3+Ti2Si8O24(OH)4,"{""Na"": 1.0, ""Sr"": 4.0, ""Fe"": 1.0, ""Ti"": 2.0, ""Si"": 8.0, ""O"": 28.0, ""H"": 4.0}",1201.733,#556B2F,orthorhombic,{23},398.0
Struvite,(NH4)Mg(PO4)·6H2O,"{""N"": 1.0, ""H"": 16.0, ""Mg"": 1.0, ""P"": 1.0, ""O"": 10.0}",245.404,#FFFFFF,orthorhombic,"{49,52}",149.0
Struvite-(K),KMg(PO4)·6H2O,"{""K"": 1.0, ""Mg"": 1.0, ""P"": 1.0, ""O"": 10.0, ""H"": 12.0}",266.463,#FFFFFF,orthorhombic,{47},1998.0
Studenitsite,NaCa2B9O14(OH)4·2H2O,"{""Na"": 1.0, ""Ca"": 2.0, ""B"": 9.0, ""O"": 20.0, ""H"": 8.0}",528.48,#FFFFFF,monoclinic,{47},1998.0
Studtite,(UO2)(O2)(H2O)2·2H2O,"{""U"": 1.0, ""O"": 8.0, ""H"": 8.0}",374.086,#ADFF2F,monoclinic,{47},1998.0
Stumpflite,PtSb,"{""Pt"": 1.0, ""Sb"": 1.0}",316.84,#A9A9A9,hexagonal,"{33,37}",932.0
Stunorthropite,(NH4)4[Mo2O6(MoO4)2],"{""N"": 4.0, ""H"": 16.0, ""Mo"": 4.0, ""O"": 14.0}",679.942,#FFFFFF,triclinic,{},1.0
Suanite,Mg2B2O5,"{""Mg"": 2.0, ""B"": 2.0, ""O"": 5.0}",150.225,#FFFFFF,monoclinic,{23},398.0
Sudburyite,PdSb,"{""Pd"": 1.0, ""Sb"": 1.0}",228.18,#A9A9A9,hexagonal,"{26,33,37}",1182.0
Sudoite,Mg2Al3(Si3Al)O10(OH)8,"{""Mg"": 2.0, ""Al"": 4.0, ""Si"": 3.0, ""O"": 18.0, ""H"": 8.0}",536.839,#FFFFFF,monoclinic,"{24,40,47}",2391.0
Sudovikovite,PtSe2,"{""Pt"": 1.0, ""Se"": 2.0}",353.022,#FFFFFF,hexagonal,{33},797.0
Suessite,Fe3Si,"{""Fe"": 3.0, ""Si"": 1.0}",195.62,#8B4513,cubic,{5},94.0
Sugarwhiteite,Pb2Te5O12,"{""Pb"": 2.0, ""Te"": 5.0, ""O"": 12.0}",1244.388,#FFFFFF,monoclinic,{},1.0
Sugilite,KNa2Fe3+2(Li3Si12)O30,"{""K"": 1.0, ""Na"": 2.0, ""Fe"": 2.0, ""Li"": 3.0, ""Si"": 12.0, ""O"": 30.0}",1034.578,#556B2F,hexagonal,"{19,32,35}",1281.0
Suhailite,(NH4)Fe2+3(Si3Al)O10(OH)2,"{""N"": 1.0, ""H"": 6.0, ""Fe"": 3.0, ""Si"": 3.0, ""Al"": 1.0, ""O"": 12.0}",490.815,#556B2F,unknown,{40},319.0
Sulfhydrylbystrite,Na5K2Ca[Al6Si6O24](S5)2-(SH)-,"{""Na"": 5.0, ""K"": 2.0, ""Ca"": 1.0, ""Al"": 6.0, ""Si"": 6.0, ""O"": 24.0, ""S"": 6.0, ""H"": 1.0}",1140.97,#FFFFFF,hexagonal,{12},129.0
Sulphohalite,Na6(SO4)2ClF,"{""Na"": 6.0, ""S"": 2.0, ""O"": 8.0, ""Cl"": 1.0, ""F"": 1.0}",384.5,#FFFFFF,cubic,"{25,45}",634.0
Sulphotsumoite,Bi3Te2S,"{""Bi"": 3.0, ""Te"": 2.0, ""S"": 1.0}",914.2,#A9A9A9,hexagonal,{33},797.0
Sulphur,S,"{""S"": 1.0}",32.06,#A9A9A9,monoclinic,"{24,44,45,49,50,54}",1093.0
Sulvanite,Cu3VS4,"{""Cu"": 3.0, ""V"": 1.0, ""S"": 4.0}",369.82,#A9A9A9,cubic,{33},797.0
Sundiusite,Pb10(SO4)O8Cl2,"{""Pb"": 10.0, ""S"": 1.0, ""O"": 12.0, ""Cl"": 2.0}",2366.948,#FFFFFF,monoclinic,"{47,56}",2141.0
Sunshuite,FeBi2S4,"{""Fe"": 1.0, ""Bi"": 2.0, ""S"": 4.0}",602.045,#DAA520,monoclinic,{},1.0
Suolunite,Ca2Si2O5(OH)2·H2O,"{""Ca"": 2.0, ""Si"": 2.0, ""O"": 8.0, ""H"": 4.0}",268.35,#FFFFFF,orthorhombic,"{14,23}",459.0
Surinamite,Mg3Al3O(Si3BeAlO15),"{""Mg"": 3.0, ""Al"": 4.0, ""O"": 16.0, ""Si"": 3.0, ""Be"": 1.0}",530.0942,#FFFFFF,monoclinic,"{23,31,35,40}",1799.0
Susannite,Pb4(SO4)(CO3)2(OH)2,"{""Pb"": 4.0, ""S"": 1.0, ""O"": 12.0, ""C"": 2.0, ""H"": 2.0}",1078.886,#FFFFFF,hexagonal,{47},1998.0
Suzukiite,BaV4+Si2O7,"{""Ba"": 1.0, ""V"": 1.0, ""Si"": 2.0, ""O"": 7.0}",356.435,#FFFFFF,orthorhombic,{32},412.0
Svabite,Ca5(AsO4)3F,"{""Ca"": 5.0, ""As"": 3.0, ""O"": 12.0, ""F"": 1.0}",636.142,#FFFFFF,triclinic,"{32,45,47}",2834.0
Svanbergite,SrAl3(SO4)(PO4)(OH)6,"{""Sr"": 1.0, ""Al"": 3.0, ""S"": 1.0, ""O"": 14.0, ""P"": 1.0, ""H"": 6.0}",461.634,#FFFFFF,hexagonal,"{47,48}",2069.0
Sveinbergeite,(H2O)2[Ca(H2O)](Fe2+6Fe3+)Ti2(Si4O12)2O2(OH)4[(OH)(H2O)],"{""H"": 13.0, ""O"": 35.0, ""Ca"": 1.0, ""Fe"": 7.0, ""Ti"": 2.0, ""Si"": 8.0}",1324.476,#556B2F,triclinic,"{22,34}",811.0
Sveite,KAl7(NO3)4(OH)16Cl2·8H2O,"{""K"": 1.0, ""Al"": 7.0, ""N"": 4.0, ""O"": 36.0, ""H"": 32.0, ""Cl"": 2.0}",963.12,#FFFFFF,monoclinic,{47},1998.0
Svenekite,Ca[AsO2(OH)2]2,"{""Ca"": 1.0, ""As"": 2.0, ""O"": 8.0, ""H"": 4.0}",321.946,#FFFFFF,triclinic,{47},1998.0
Svornostite-(K),K2Mg[(UO2)(SO4)2]2·8H2O,"{""K"": 2.0, ""Mg"": 1.0, ""U"": 2.0, ""O"": 28.0, ""S"": 4.0, ""H"": 16.0}",1170.901,#FFFFFF,orthorhombic,{47},1998.0
Svornostite-(NH4),(NH4)2Mg(UO2)2(SO4)4(H2O)8,"{""N"": 2.0, ""H"": 24.0, ""Mg"": 1.0, ""U"": 2.0, ""O"": 28.0, ""S"": 4.0}",1128.783,#FFFFFF,orthorhombic,{},1.0
Svyatoslavite,Ca(Al2Si2O8),"{""Ca"": 1.0, ""Al"": 2.0, ""Si"": 2.0, ""O"": 8.0}",278.204,#FFFFFF,monoclinic,"{50,54}",507.0
Svyazhinite,MgAl(SO4)2F·14H2O,"{""Mg"": 1.0, ""Al"": 1.0, ""S"": 2.0, ""O"": 22.0, ""F"": 1.0, ""H"": 28.0}",514.607,#FFFFFF,triclinic,{47},1998.0
Swaknoite,(NH4)2Ca(PO3OH)2·H2O,"{""N"": 2.0, ""H"": 12.0, ""Ca"": 1.0, ""P"": 2.0, ""O"": 9.0}",286.127,#FFFFFF,orthorhombic,{52},72.0
Swartzite,CaMg(UO2)(CO3)3·12H2O,"{""Ca"": 1.0, ""Mg"": 1.0, ""U"": 1.0, ""O"": 23.0, ""C"": 3.0, ""H"": 24.0}",730.615,#FFFFFF,monoclinic,"{47,55}",2262.0
Swedenborgite,NaBe4Sb5+O7,"{""Na"": 1.0, ""Be"": 4.0, ""Sb"": 1.0, ""O"": 7.0}",292.7918,#FFFFFF,hexagonal,{32},412.0
Sylvanite,AgAuTe4,"{""Ag"": 1.0, ""Au"": 1.0, ""Te"": 4.0}",815.24,#FFD700,monoclinic,{33},797.0
Sylvite,KCl,"{""K"": 1.0, ""Cl"": 1.0}",74.548,#FFFFFF,cubic,"{5,21,25,45}",807.0
Symesite,Pb10(SO4)O7Cl4·H2O,"{""Pb"": 10.0, ""S"": 1.0, ""O"": 12.0, ""Cl"": 4.0, ""H"": 2.0}",2439.864,#FFFFFF,triclinic,{47},1998.0
Symplesite,Fe2+3(AsO4)2·8H2O,"{""Fe"": 3.0, ""As"": 2.0, ""O"": 16.0, ""H"": 16.0}",589.491,#556B2F,triclinic,{47},1998.0
Synchysite-(Ce),CaCe(CO3)2F,"{""Ca"": 1.0, ""Ce"": 1.0, ""C"": 2.0, ""O"": 6.0, ""F"": 1.0}",319.212,#FFFFFF,monoclinic,"{34,35,36}",1581.0
Synchysite-(Nd),CaNd(CO3)2F,"{""Ca"": 1.0, ""Nd"": 1.0, ""C"": 2.0, ""O"": 6.0, ""F"": 1.0}",323.332,#FFFFFF,orthorhombic,"{34,35}",1290.0
Synchysite-(Y),CaY(CO3)2F,"{""Ca"": 1.0, ""Y"": 1.0, ""C"": 2.0, ""O"": 6.0, ""F"": 1.0}",267.998,#FFFFFF,orthorhombic,"{34,35,36}",1581.0
Syngenite,K2Ca(SO4)2·H2O,"{""K"": 2.0, ""Ca"": 1.0, ""S"": 2.0, ""O"": 9.0, ""H"": 2.0}",328.401,#FFFFFF,monoclinic,"{45,46,52}",548.0
Szaibelyite,MgBO2(OH),"{""Mg"": 1.0, ""B"": 1.0, ""O"": 3.0, ""H"": 1.0}",84.12,#FFFFFF,monoclinic,"{23,25,31}",964.0
Szenicsite,Cu3(MoO4)(OH)4,"{""Cu"": 3.0, ""Mo"": 1.0, ""O"": 8.0, ""H"": 4.0}",418.612,#FFFFFF,orthorhombic,{47},1998.0
Szilagyiite,NaCa3(UO2)(CO3)3(SeO3)F(H2O)6,"{""Na"": 1.0, ""Ca"": 3.0, ""U"": 1.0, ""O"": 20.0, ""C"": 3.0, ""Se"": 1.0, ""F"": 1.0, ""H"": 12.0}",847.332,#FFFFFF,hexagonal,{},1.0
Szomolnokite,Fe(SO4)·H2O,"{""Fe"": 1.0, ""S"": 1.0, ""O"": 5.0, ""H"": 2.0}",169.916,#556B2F,monoclinic,"{45,47,55}",2686.0
Szymanskiite,Hg16Ni6(CO3)12(OH)12(H3O)8·3H2O,"{""Hg"": 16.0, ""Ni"": 6.0, ""C"": 12.0, ""O"": 59.0, ""H"": 42.0}",4692.007,#FFFFFF,hexagonal,{47},1998.0
Tacharanite,Ca12Al2Si18O33(OH)36,"{""Ca"": 12.0, ""Al"": 2.0, ""Si"": 18.0, ""O"": 69.0, ""H"": 36.0}",2180.649,#FFFFFF,monoclinic,"{10,16}",190.0
Tachyhydrite,CaMg2Cl6·12H2O,"{""Ca"": 1.0, ""Mg"": 2.0, ""Cl"": 6.0, ""H"": 24.0, ""O"": 12.0}",517.568,#FFFFFF,hexagonal,{25},210.0
Tainiolite,KLiMg2Si4O10F2,"{""K"": 1.0, ""Li"": 1.0, ""Mg"": 2.0, ""Si"": 4.0, ""O"": 10.0, ""F"": 2.0}",404.974,#FFFFFF,monoclinic,"{35,36}",1017.0
Takanawaite-(Y),YTaO4,"{""Y"": 1.0, ""Ta"": 1.0, ""O"": 4.0}",333.852,#FFFFFF,monoclinic,{34},564.0
Takedaite,Ca3B2O6,"{""Ca"": 3.0, ""B"": 2.0, ""O"": 6.0}",237.848,#FFFFFF,hexagonal,{23},398.0
Takovite,Ni6Al2(OH)16(CO3)·4H2O,"{""Ni"": 6.0, ""Al"": 2.0, ""O"": 23.0, ""H"": 24.0, ""C"": 1.0}",810.302,#FFFFFF,hexagonal,"{47,48}",2069.0
Talc,Mg3Si4O10(OH)2,"{""Mg"": 3.0, ""Si"": 4.0, ""O"": 12.0, ""H"": 2.0}",379.259,#FFFFFF,monoclinic,"{6,7,13,15,16,31,39,40,47}",3253.0
Talmessite,Ca2Mg(AsO4)2·2H2O,"{""Ca"": 2.0, ""Mg"": 1.0, ""As"": 2.0, ""O"": 10.0, ""H"": 4.0}",418.327,#FFFFFF,triclinic,{47},1998.0
Talnakhite,Cu9Fe8S16,"{""Cu"": 9.0, ""Fe"": 8.0, ""S"": 16.0}",1531.634,#DAA520,cubic,"{15,33,37}",964.0
Tamarugite,NaAl(SO4)2·6H2O,"{""Na"": 1.0, ""Al"": 1.0, ""S"": 2.0, ""O"": 14.0, ""H"": 12.0}",350.174,#FFFFFF,monoclinic,"{45,47}",2422.0
Tamboite,Fe3+3(OH)(H2O)2(SO4)(Te4+O3)3[Te4+O(OH)2](H2O)3,"{""Fe"": 3.0, ""O"": 22.0, ""H"": 13.0, ""S"": 1.0, ""Te"": 4.0}",1075.077,#556B2F,monoclinic,{47},1998.0
Tamuraite,Ir5Fe10S16,"{""Ir"": 5.0, ""Fe"": 10.0, ""S"": 16.0}",2032.51,#DAA520,hexagonal,{33},797.0
Tancaite-(Ce),FeCe(MoO4)3·3H2O,"{""Fe"": 1.0, ""Ce"": 1.0, ""Mo"": 3.0, ""O"": 15.0, ""H"": 6.0}",729.848,#556B2F,hexagonal,"{22,47}",2245.0
Tancoite,LiNa2Al(PO4)(PO3OH)(OH),"{""Li"": 1.0, ""Na"": 2.0, ""Al"": 1.0, ""P"": 2.0, ""O"": 9.0, ""H"": 2.0}",287.857,#FFFFFF,orthorhombic,{34},564.0
Tangeite,CaCu(VO4)(OH),"{""Ca"": 1.0, ""Cu"": 1.0, ""V"": 1.0, ""O"": 5.0, ""H"": 1.0}",235.569,#FFFFFF,orthorhombic,{47},1998.0
Tantalaeschynite-(Ce),Ce(TiTa)O6,"{""Ce"": 1.0, ""Ti"": 1.0, ""Ta"": 1.0, ""O"": 6.0}",464.931,#FFFFFF,orthorhombic,{},1.0
Tantalaeschynite-(Y),Y(TiTa)O6,"{""Y"": 1.0, ""Ti"": 1.0, ""Ta"": 1.0, ""O"": 6.0}",413.717,#FFFFFF,orthorhombic,{34},564.0
Tantalcarbide,TaC,"{""Ta"": 1.0, ""C"": 1.0}",192.961,#FFFFFF,cubic,{26},250.0
Tantalite-(Fe),Fe2+Ta2O6,"{""Fe"": 1.0, ""Ta"": 2.0, ""O"": 6.0}",513.739,#8B4513,orthorhombic,{34},564.0
Tantalite-(Mg),MgTa2O6,"{""Mg"": 1.0, ""Ta"": 2.0, ""O"": 6.0}",482.199,#FFFFFF,orthorhombic,{34},564.0
Tanteuxenite-(Y),Y(TaTi)O6,"{""Y"": 1.0, ""Ta"": 1.0, ""Ti"": 1.0, ""O"": 6.0}",413.717,#FFFFFF,unknown,"{26,34}",814.0
Tantite,Ta2O5,"{""Ta"": 2.0, ""O"": 5.0}",441.895,#FFFFFF,monoclinic,{34},564.0
Tapiaite,Ca5Al2(AsO4)4(OH)4·12H2O,"{""Ca"": 5.0, ""Al"": 2.0, ""As"": 4.0, ""O"": 32.0, ""H"": 28.0}",1094.234,#FFFFFF,monoclinic,{47},1998.0
Tapiolite-(Fe),Fe2+Ta2O6,"{""Fe"": 1.0, ""Ta"": 2.0, ""O"": 6.0}",513.739,#8B4513,tetragonal,{34},564.0
Taramite,Na(NaCa)(Mg3Al2)(Si6Al2)O22(OH)2,"{""Na"": 2.0, ""Ca"": 1.0, ""Mg"": 3.0, ""Al"": 4.0, ""Si"": 6.0, ""O"": 24.0, ""H"": 2.0}",821.403,#FFFFFF,monoclinic,"{23,35,39,40}",1513.0
Taranakite,K3Al5(PO3OH)6(PO4)2·18H2O,"{""K"": 3.0, ""Al"": 5.0, ""P"": 8.0, ""O"": 50.0, ""H"": 42.0}",1342.282,#FFFFFF,hexagonal,"{47,50,52,54}",2577.0
Tarapacaite,K2(CrO4),"{""K"": 2.0, ""Cr"": 1.0, ""O"": 4.0}",194.188,#228B22,orthorhombic,"{25,33}",1007.0
Tartarosite,C,"{""C"": 1.0}",12.011,#FFFFFF,cubic,{},1.0
Tarutinoite,Ag3Pb7Bi7S19,"{""Ag"": 3.0, ""Pb"": 7.0, ""Bi"": 7.0, ""S"": 19.0}",3846.01,#708090,monoclinic,{},1.0
Tashelgite,CaMgFe2+Al9O16(OH),"{""Ca"": 1.0, ""Mg"": 1.0, ""Fe"": 1.0, ""Al"": 9.0, ""O"": 17.0, ""H"": 1.0}",636.057,#556B2F,monoclinic,{31},356.0
Tassieite,NaCa2Mg3Fe2+2Fe3+(PO4)6·2H2O,"{""Na"": 1.0, ""Ca"": 2.0, ""Mg"": 3.0, ""Fe"": 3.0, ""P"": 6.0, ""O"": 26.0, ""H"": 4.0}",949.446,#556B2F,orthorhombic,{34},564.0
Tatarinovite,Ca3Al(SO4)[B(OH)4](OH)6·12H2O,"{""Ca"": 3.0, ""Al"": 1.0, ""S"": 1.0, ""O"": 26.0, ""B"": 1.0, ""H"": 34.0}",640.332,#FFFFFF,hexagonal,{31},356.0
Tatarskite,Ca6Mg2(SO4)2(CO3)2(OH)4Cl4·7H2O,"{""Ca"": 6.0, ""Mg"": 2.0, ""S"": 2.0, ""O"": 25.0, ""C"": 2.0, ""H"": 18.0, ""Cl"": 4.0}",937.139,#FFFFFF,unknown,{25},210.0
Tausonite,SrTiO3,"{""Sr"": 1.0, ""Ti"": 1.0, ""O"": 3.0}",183.484,#FFFFFF,tetragonal,"{7,35,36}",1140.0
Tavagnascoite,Bi4O4(SO4)(OH)2,"{""Bi"": 4.0, ""O"": 10.0, ""S"": 1.0, ""H"": 2.0}",1029.986,#FFFFFF,orthorhombic,{47},1998.0
Tavorite,LiFe3+(PO4)(OH),"{""Li"": 1.0, ""Fe"": 1.0, ""P"": 1.0, ""O"": 5.0, ""H"": 1.0}",174.762,#556B2F,triclinic,"{34,47}",2562.0
Teepleite,Na2B(OH)4Cl,"{""Na"": 2.0, ""B"": 1.0, ""O"": 4.0, ""H"": 4.0, ""Cl"": 1.0}",160.268,#FFFFFF,tetragonal,{25},210.0
Teineite,Cu2+(Te4+O3)·2H2O,"{""Cu"": 1.0, ""Te"": 1.0, ""O"": 5.0, ""H"": 4.0}",275.173,#FFFFFF,orthorhombic,{47},1998.0
Tellurantimony,Sb2Te3,"{""Sb"": 2.0, ""Te"": 3.0}",626.32,#A9A9A9,hexagonal,{33},797.0
Tellurite,TeO2,"{""Te"": 1.0, ""O"": 2.0}",159.598,#FFFFFF,orthorhombic,{47},1998.0
Tellurium,Te,"{""Te"": 1.0}",127.6,#FFFFFF,hexagonal,"{33,45}",1221.0
Tellurobismuthite,Bi2Te3,"{""Bi"": 2.0, ""Te"": 3.0}",800.76,#D2B48C,hexagonal,{33},797.0
Tellurohauchecornite,Ni9BiTeS8,"{""Ni"": 9.0, ""Bi"": 1.0, ""Te"": 1.0, ""S"": 8.0}",1121.297,#A9A9A9,tetragonal,{33},797.0
Telluromandarinoite,Fe3+2(Te4+O3)3·6H2O,"{""Fe"": 2.0, ""Te"": 3.0, ""O"": 15.0, ""H"": 12.0}",746.571,#556B2F,monoclinic,{47},1998.0
Telluronevskite,Bi3TeSe2,"{""Bi"": 3.0, ""Te"": 1.0, ""Se"": 2.0}",912.482,#D2B48C,hexagonal,{33},797.0
Telluropalladinite,Pd9Te4,"{""Pd"": 9.0, ""Te"": 4.0}",1468.18,#FFFFFF,monoclinic,"{33,37}",932.0
Telyushenkoite,CsNa6Be2Al3Si15O39F2,"{""Cs"": 1.0, ""Na"": 6.0, ""Be"": 2.0, ""Al"": 3.0, ""Si"": 15.0, ""O"": 39.0, ""F"": 2.0}",1453.0524,#FFFFFF,hexagonal,{35},726.0
Temagamite,Pd3HgTe3,"{""Pd"": 3.0, ""Hg"": 1.0, ""Te"": 3.0}",902.65,#FFFFFF,orthorhombic,"{33,37}",932.0
Tengchongite,Ca(UO2)6(MoO4OH)2O2(OH)4·9H2O,"{""Ca"": 1.0, ""U"": 6.0, ""O"": 37.0, ""Mo"": 2.0, ""H"": 24.0}",2276.313,#FFFFFF,orthorhombic,{47},1998.0
Tengerite-(Y),Y2(CO3)3·2-3H2O,"{""Y"": 2.0, ""C"": 3.0, ""O"": 12.0, ""H"": 6.0}",411.881,#FFFFFF,orthorhombic,{47},1998.0
Tennantite-(Cd),Cu6(Cu4Cd2)As4S13,"{""Cu"": 10.0, ""Cd"": 2.0, ""As"": 4.0, ""S"": 13.0}",1576.748,#FFD700,cubic,{33},797.0
Tennantite-(Cu),Cu6(Cu4Cu2)As4S13,"{""Cu"": 12.0, ""As"": 4.0, ""S"": 13.0}",1479.02,#FFD700,cubic,{33},797.0
Tennantite-(Fe),Cu6(Cu4Fe2)As4S13,"{""Cu"": 10.0, ""Fe"": 2.0, ""As"": 4.0, ""S"": 13.0}",1463.618,#DAA520,cubic,"{33,37}",932.0
Tennantite-(Hg),Cu6(Cu4Hg2)As4S13,"{""Cu"": 10.0, ""Hg"": 2.0, ""As"": 4.0, ""S"": 13.0}",1753.108,#FFD700,cubic,{33},797.0
Tennantite-(Ni),Cu6(Cu4Ni2)As4S13,"{""Cu"": 10.0, ""Ni"": 2.0, ""As"": 4.0, ""S"": 13.0}",1469.314,#FFD700,cubic,{33},797.0
Tenorite,CuO,"{""Cu"": 1.0, ""O"": 1.0}",79.545,#00BFFF,monoclinic,"{45,50,54}",931.0
Terlinguacreekite,Hg2+3O2Cl2,"{""Hg"": 3.0, ""O"": 2.0, ""Cl"": 2.0}",704.668,#FFFFFF,orthorhombic,{47},1998.0
Terlinguaite,Hg2OCl,"{""Hg"": 2.0, ""O"": 1.0, ""Cl"": 1.0}",452.629,#FFFFFF,monoclinic,{47},1998.0
Ternesite,Ca5(SiO4)2(SO4),"{""Ca"": 5.0, ""Si"": 2.0, ""O"": 12.0, ""S"": 1.0}",480.608,#FFFFFF,orthorhombic,"{31,50,51,54,56}",1134.0
Ternovite,MgNb4O11·8-12H2O,"{""Mg"": 1.0, ""Nb"": 4.0, ""O"": 23.0, ""H"": 24.0}",788.098,#FFFFFF,unknown,{35},726.0
Terranovaite,NaCaAl3Si17O40·~8H2O,"{""Na"": 1.0, ""Ca"": 1.0, ""Al"": 3.0, ""Si"": 17.0, ""O"": 48.0, ""H"": 16.0}",1405.539,#FFFFFF,orthorhombic,{10},107.0
Terskite,Na4ZrSi6O16·2H2O,"{""Na"": 4.0, ""Zr"": 1.0, ""Si"": 6.0, ""O"": 18.0, ""H"": 4.0}",643.708,#FFFFFF,orthorhombic,{35},726.0
Tertschite,Ca4B10O19·20H2O,"{""Ca"": 4.0, ""B"": 10.0, ""O"": 39.0, ""H"": 40.0}",932.693,#FFFFFF,unknown,{25},210.0
Teruggite,Ca4Mg[AsB6O11(OH)6]2·14H2O,"{""Ca"": 4.0, ""Mg"": 1.0, ""As"": 2.0, ""B"": 12.0, ""O"": 48.0, ""H"": 40.0}",1272.453,#FFFFFF,monoclinic,{25},210.0
Teschemacherite,(NH4)H(CO3),"{""N"": 1.0, ""H"": 5.0, ""C"": 1.0, ""O"": 3.0}",79.055,#FFFFFF,orthorhombic,{52},72.0
Testibiopalladite,PdSbTe,"{""Pd"": 1.0, ""Sb"": 1.0, ""Te"": 1.0}",355.78,#A9A9A9,cubic,{},1.0
Tetra-auricupride,CuAu,"{""Cu"": 1.0, ""Au"": 1.0}",260.516,#00BFFF,unknown,"{7,26,36,37}",799.0
Tetradymite,Bi2Te2S,"{""Bi"": 2.0, ""Te"": 2.0, ""S"": 1.0}",705.22,#A9A9A9,hexagonal,"{23,31,33}",1551.0
Tetraferriannite,KFe2+3(Si3Fe3+)O10(OH)2,"{""K"": 1.0, ""Fe"": 4.0, ""Si"": 3.0, ""O"": 12.0, ""H"": 2.0}",540.737,#556B2F,hexagonal,"{8,9,19,20,31,34,35,40,56}",2516.0
Tetraferriphlogopite,KMg3(Si3Fe3+)O10(OH)2,"{""K"": 1.0, ""Mg"": 3.0, ""Si"": 3.0, ""Fe"": 1.0, ""O"": 12.0, ""H"": 2.0}",446.117,#556B2F,unknown,{19},143.0
Tetraferroplatinum,PtFe,"{""Pt"": 1.0, ""Fe"": 1.0}",250.925,#8B4513,tetragonal,"{7,26,37,38}",616.0
Tetrahedrite-(Cd),Cu6(Cu4Cd2)Sb4S13,"{""Cu"": 10.0, ""Cd"": 2.0, ""Sb"": 4.0, ""S"": 13.0}",1764.1,#A9A9A9,cubic,{},1.0
Tetrahedrite-(Cu),Cu6(Cu4Cu2)Sb4S13,"{""Cu"": 12.0, ""Sb"": 4.0, ""S"": 13.0}",1666.372,#A9A9A9,cubic,{},1.0
Tetrahedrite-(Fe),Cu6(Cu4Fe2)Sb4S13,"{""Cu"": 10.0, ""Fe"": 2.0, ""Sb"": 4.0, ""S"": 13.0}",1650.97,#DAA520,unknown,{33},797.0
Tetrahedrite-(Hg),Cu6(Cu4Hg2)Sb4S13,"{""Cu"": 10.0, ""Hg"": 2.0, ""Sb"": 4.0, ""S"": 13.0}",1940.46,#A9A9A9,cubic,{33},797.0
Tetrahedrite-(Ni),Cu6(Cu4Ni2)Sb4S13,"{""Cu"": 10.0, ""Ni"": 2.0, ""Sb"": 4.0, ""S"": 13.0}",1656.666,#A9A9A9,cubic,{33},797.0