name,formula,elements,density,color,crystal
Pyroaurite,Mg6Fe3+2(OH)16(CO3)·4H2O,"{""Mg"": 6.0, ""Fe"": 2.0, ""O"": 23.0, ""H"": 24.0, ""C"": 1.0}",661.7,#556B2F,hexagonal
Pyromorphite,Pb5(PO4)3Cl,"{""Pb"": 5.0, ""P"": 3.0, ""O"": 12.0, ""Cl"": 1.0}",1356.36,#FFFFFF,hexagonal
Pyrope,Mg3Al2(SiO4)3,"{""Mg"": 3.0, ""Al"": 2.0, ""Si"": 3.0, ""O"": 12.0}",403.122,#FFFFFF,cubic
Pyrophyllite,Al2Si4O10(OH)2,"{""Al"": 2.0, ""Si"": 4.0, ""O"": 12.0, ""H"": 2.0}",360.308,#FFFFFF,triclinic
Pyrosmalite-(Fe),Fe2+8Si6O15(OH)10,"{""Fe"": 8.0, ""Si"": 6.0, ""O"": 25.0, ""H"": 10.0}",1025.325,#556B2F,hexagonal
Pyrostilpnite,Ag3SbS3,"{""Ag"": 3.0, ""Sb"": 1.0, ""S"": 3.0}",541.55,#A9A9A9,monoclinic
Pyroxferroite,Fe2+SiO3,"{""Fe"": 1.0, ""Si"": 1.0, ""O"": 3.0}",131.927,#8B4513,triclinic
Pyrrhotite,Fe7S8,"{""Fe"": 7.0, ""S"": 8.0}",647.395,#DAA520,hexagonal
Qaqarssukite-(Ce),BaCe(CO3)2F,"{""Ba"": 1.0, ""Ce"": 1.0, ""C"": 2.0, ""O"": 6.0, ""F"": 1.0}",416.464,#FFFFFF,hexagonal
Qeltite,Ca3TiSi2(Fe3+2Si)O14,"{""Ca"": 3.0, ""Ti"": 1.0, ""Si"": 3.0, ""Fe"": 2.0, ""O"": 14.0}",588.032,#556B2F,hexagonal
Qilianshanite,NaH4(CO3)(BO3)·2H2O,"{""Na"": 1.0, ""H"": 8.0, ""C"": 1.0, ""O"": 8.0, ""B"": 1.0}",181.867,#FFFFFF,monoclinic
Qingsongite,BN,"{""B"": 1.0, ""N"": 1.0}",24.817,#FFFFFF,cubic
Qitianlingite,Fe2+2Nb2W6+O10,"{""Fe"": 2.0, ""Nb"": 2.0, ""W"": 1.0, ""O"": 10.0}",641.332,#556B2F,orthorhombic
Quadratite,AgCdAsS3,"{""Ag"": 1.0, ""Cd"": 1.0, ""As"": 1.0, ""S"": 3.0}",391.382,#FFD700,tetragonal
Quadruphite,Na6Na2(CaNa)2Na2Ti2Na2Ti2(Si2O7)2(PO4)4O4F2,"{""Na"": 14.0, ""Ca"": 2.0, ""Ti"": 4.0, ""Si"": 4.0, ""O"": 34.0, ""P"": 4.0, ""F"": 2.0}",1411.682,#FFFFFF,triclinic
Quartz,SiO2,"{""Si"": 1.0, ""O"": 2.0}",60.083,#FFFFFF,hexagonal
Quatrandorite,AgPbSb3S6,"{""Ag"": 1.0, ""Pb"": 1.0, ""Sb"": 3.0, ""S"": 6.0}",872.71,#708090,monoclinic
Quenstedtite,Fe3+2(SO4)3·11H2O,"{""Fe"": 2.0, ""S"": 3.0, ""O"": 23.0, ""H"": 22.0}",598.023,#556B2F,triclinic
Quijarroite,Cu6HgPb2Bi4Se12,"{""Cu"": 6.0, ""Hg"": 1.0, ""Pb"": 2.0, ""Bi"": 4.0, ""Se"": 12.0}",2779.838,#FFFFFF,orthorhombic
Quintinite,Mg4Al2(OH)12(CO3)·3H2O,"{""Mg"": 4.0, ""Al"": 2.0, ""O"": 18.0, ""H"": 18.0, ""C"": 1.0}",469.321,#FFFFFF,hexagonal
Qusongite,WC,"{""W"": 1.0, ""C"": 1.0}",195.851,#FFFFFF,hexagonal
Raadeite,Mg7(PO4)2(OH)8,"{""Mg"": 7.0, ""P"": 2.0, ""O"": 16.0, ""H"": 8.0}",496.131,#FFFFFF,monoclinic
Rabbittite,Ca3Mg3(UO2)2(CO3)6(OH)4·18H2O,"{""Ca"": 3.0, ""Mg"": 3.0, ""U"": 2.0, ""O"": 44.0, ""C"": 6.0, ""H"": 40.0}",1485.551,#FFFFFF,monoclinic
Rabejacite,Ca2[(UO2)4O4(SO4)2](H2O)8,"{""Ca"": 2.0, ""U"": 4.0, ""O"": 28.0, ""S"": 2.0, ""H"": 16.0}",1560.496,#FFFFFF,orthorhombic
Raberite,Tl5Ag4As6SbS15,"{""Tl"": 5.0, ""Ag"": 4.0, ""As"": 6.0, ""Sb"": 1.0, ""S"": 15.0}",2505.572,#FFD700,triclinic
Radekskodaite-(Ce),(CaCe5)(Al4Fe2+)[Si2O7][SiO4]5O(OH)3,"{""Ca"": 1.0, ""Ce"": 5.0, ""Al"": 4.0, ""Fe"": 1.0, ""Si"": 7.0, ""O"": 31.0, ""H"": 3.0}",1600.039,#556B2F,monoclinic
Radekskodaite-(La),(CaLa5)(Al4Fe2+)[Si2O7][SiO4]5O(OH)3,"{""Ca"": 1.0, ""La"": 5.0, ""Al"": 4.0, ""Fe"": 1.0, ""Si"": 7.0, ""O"": 31.0, ""H"": 3.0}",1593.989,#556B2F,monoclinic
Radovanite,Cu2Fe3+[As5+O4][As3+O2(OH)]2·H2O,"{""Cu"": 2.0, ""Fe"": 1.0, ""As"": 3.0, ""O"": 11.0, ""H"": 4.0}",587.724,#556B2F,orthorhombic
Radtkeite,Hg3S2ClI,"{""Hg"": 3.0, ""S"": 2.0, ""Cl"": 1.0, ""I"": 1.0}",828.24,#A9A9A9,monoclinic
Radvaniceite,GeS2,"{""Ge"": 1.0, ""S"": 2.0}",136.75,#A9A9A9,monoclinic
Raguinite,TlFeS2,"{""Tl"": 1.0, ""Fe"": 1.0, ""S"": 2.0}",324.345,#DAA520,monoclinic
Raisaite,CuMg[Te6+O4(OH)2]·6H2O,"{""Cu"": 1.0, ""Mg"": 1.0, ""Te"": 1.0, ""O"": 12.0, ""H"": 14.0}",421.551,#FFFFFF,monoclinic
Rajite,CuTe4+2O5,"{""Cu"": 1.0, ""Te"": 2.0, ""O"": 5.0}",398.741,#00BFFF,monoclinic
Rakovanite,(NH4)3Na3[V10O28]·12H2O,"{""N"": 3.0, ""H"": 36.0, ""Na"": 3.0, ""V"": 10.0, ""O"": 40.0}",1296.659,#FFFFFF,monoclinic
Ramaccioniite,Cu4[SeO4](OH)6,"{""Cu"": 4.0, ""Se"": 1.0, ""O"": 10.0, ""H"": 6.0}",499.193,#FFFFFF,monoclinic
Ramanite-(Cs),CsB5O6(OH)4·2H2O,"{""Cs"": 1.0, ""B"": 5.0, ""O"": 12.0, ""H"": 8.0}",387.012,#FFFFFF,monoclinic
Ramanite-(Rb),RbB5O6(OH)4·2H2O,"{""Rb"": 1.0, ""B"": 5.0, ""O"": 12.0, ""H"": 8.0}",339.57,#FFFFFF,orthorhombic
Rameauite,K2Ca(UO2)6O6(OH)4·6H2O,"{""K"": 2.0, ""Ca"": 1.0, ""U"": 6.0, ""O"": 28.0, ""H"": 16.0}",2010.554,#FFFFFF,monoclinic
Rammelsbergite,NiAs2,"{""Ni"": 1.0, ""As"": 2.0}",208.537,#7FFF00,orthorhombic
Ramsbeckite,Cu15(SO4)4(OH)22·6H2O,"{""Cu"": 15.0, ""S"": 4.0, ""O"": 44.0, ""H"": 34.0}",1819.658,#FFFFFF,monoclinic
Rankinite,Ca3Si2O7,"{""Ca"": 3.0, ""Si"": 2.0, ""O"": 7.0}",288.397,#FFFFFF,monoclinic
Ransomite,CuFe3+2(SO4)4·6H2O,"{""Cu"": 1.0, ""Fe"": 2.0, ""S"": 4.0, ""O"": 22.0, ""H"": 12.0}",667.55,#556B2F,monoclinic
Ranunculite,Al(UO2)(PO3OH)(OH)3·4H2O,"{""Al"": 1.0, ""U"": 1.0, ""O"": 13.0, ""P"": 1.0, ""H"": 12.0}",516.069,#FFFFFF,monoclinic
Rapidcreekite,Ca2(SO4)(CO3)·4H2O,"{""Ca"": 2.0, ""S"": 1.0, ""O"": 11.0, ""C"": 1.0, ""H"": 8.0}",308.28,#FFFFFF,orthorhombic
Rappoldite,PbCo2(AsO4)2·2H2O,"{""Pb"": 1.0, ""Co"": 2.0, ""As"": 2.0, ""O"": 10.0, ""H"": 4.0}",638.932,#FFFFFF,triclinic
Rasmussenite,Ca(C2H3O3)2·3H2O,"{""Ca"": 1.0, ""C"": 4.0, ""H"": 12.0, ""O"": 9.0}",244.209,#FFFFFF,triclinic
Raspite,Pb(WO4),"{""Pb"": 1.0, ""W"": 1.0, ""O"": 4.0}",455.036,#FFFFFF,monoclinic
Rasvumite,KFe2S3,"{""K"": 1.0, ""Fe"": 2.0, ""S"": 3.0}",246.968,#DAA520,orthorhombic
Rathite-IV,Pb3As5S10,"{""Pb"": 3.0, ""As"": 5.0, ""S"": 10.0}",1316.81,#708090,
Rauchite,Ni(UO2)2(AsO4)2·10H2O,"{""Ni"": 1.0, ""U"": 2.0, ""O"": 22.0, ""As"": 2.0, ""H"": 20.0}",1056.735,#FFFFFF,triclinic
Rauenthalite,Ca3(AsO4)2·10H2O,"{""Ca"": 3.0, ""As"": 2.0, ""O"": 18.0, ""H"": 20.0}",578.22,#FFFFFF,triclinic
Rauvite,Ca(UO2)2V10O28·16H2O,"{""Ca"": 1.0, ""U"": 2.0, ""O"": 48.0, ""V"": 10.0, ""H"": 32.0}",1825.766,#FFFFFF,
Ravatite,C14H10,"{""C"": 14.0, ""H"": 10.0}",178.234,#FFFFFF,monoclinic
Raydemarkite,MoO3·H2O,"{""Mo"": 1.0, ""O"": 4.0, ""H"": 2.0}",161.962,#FFFFFF,triclinic
Realgar,AsS,"{""As"": 1.0, ""S"": 1.0}",106.982,#FFD700,monoclinic
Rebulite,Tl5Sb5As8S22,"{""Tl"": 5.0, ""Sb"": 5.0, ""As"": 8.0, ""S"": 22.0}",2935.396,#FFD700,monoclinic
Reckibachite,Ag2Pb12As14Sb4S40,"{""Ag"": 2.0, ""Pb"": 12.0, ""As"": 14.0, ""Sb"": 4.0, ""S"": 40.0}",5520.488,#708090,monoclinic
Redgillite,Cu6(SO4)(OH)10·H2O,"{""Cu"": 6.0, ""S"": 1.0, ""O"": 15.0, ""H"": 12.0}",665.417,#FFFFFF,monoclinic
Redingtonite,Fe2+Cr2(SO4)4·22H2O,"{""Fe"": 1.0, ""Cr"": 2.0, ""S"": 4.0, ""O"": 38.0, ""H"": 44.0}",940.391,#556B2F,
Redledgeite,Ba(Ti6Cr3+2)O16,"{""Ba"": 1.0, ""Ti"": 6.0, ""Cr"": 2.0, ""O"": 16.0}",784.508,#FFFFFF,tetragonal
Redondite,Al(PO4)·2H2O,"{""Al"": 1.0, ""P"": 1.0, ""O"": 6.0, ""H"": 4.0}",157.982,#FFFFFF,
Reedmergnerite,NaBSi3O8,"{""Na"": 1.0, ""B"": 1.0, ""Si"": 3.0, ""O"": 8.0}",246.047,#FFFFFF,triclinic
Reevesite,Ni6Fe3+2(OH)16(CO3)·4H2O,"{""Ni"": 6.0, ""Fe"": 2.0, ""O"": 23.0, ""H"": 24.0, ""C"": 1.0}",868.028,#556B2F,hexagonal
Refikite,C20H34O2,"{""C"": 20.0, ""H"": 34.0, ""O"": 2.0}",306.49,#FFFFFF,orthorhombic
Regerite,KFe6(PO4)4(OH)7(H2O)6·4H2O,"{""K"": 1.0, ""Fe"": 6.0, ""P"": 4.0, ""O"": 33.0, ""H"": 27.0}",1053.247,#556B2F,monoclinic
Reichenbachite,Cu5(PO4)2(OH)4,"{""Cu"": 5.0, ""P"": 2.0, ""O"": 12.0, ""H"": 4.0}",575.698,#FFFFFF,monoclinic
Reidite,Zr(SiO4),"{""Zr"": 1.0, ""Si"": 1.0, ""O"": 4.0}",183.305,#FFFFFF,tetragonal
Reinhardbraunsite,Ca5(SiO4)2(OH)2,"{""Ca"": 5.0, ""Si"": 2.0, ""O"": 10.0, ""H"": 2.0}",418.566,#FFFFFF,monoclinic
Relianceite-(K),K4Mg(V4+O)2(C2O4)(PO3OH)4(H2O)10,"{""K"": 4.0, ""Mg"": 1.0, ""V"": 2.0, ""O"": 32.0, ""C"": 2.0, ""P"": 4.0, ""H"": 24.0}",966.659,#FFFFFF,monoclinic
Renardite,Pb(UO2)4(PO4)2(OH)4·7H2O,"{""Pb"": 1.0, ""U"": 4.0, ""O"": 27.0, ""P"": 2.0, ""H"": 18.0}",1671.385,#FFFFFF,
Rengeite,Sr4Ti4ZrO8(Si2O7)2,"{""Sr"": 4.0, ""Ti"": 4.0, ""Zr"": 1.0, ""O"": 22.0, ""Si"": 4.0}",1097.49,#FFFFFF,monoclinic
Retgersite,Ni(SO4)·6H2O,"{""Ni"": 1.0, ""S"": 1.0, ""O"": 10.0, ""H"": 12.0}",262.839,#FFFFFF,tetragonal
Revdite,Na16Si16O27(OH)26·28H2O,"{""Na"": 16.0, ""Si"": 16.0, ""O"": 81.0, ""H"": 82.0}",2195.775,#FFFFFF,monoclinic
Reyerite,Na2Ca14Al2Si22O58(OH)8·6H2O,"{""Na"": 2.0, ""Ca"": 14.0, ""Al"": 2.0, ""Si"": 22.0, ""O"": 72.0, ""H"": 20.0}",2450.994,#FFFFFF,hexagonal
Reznitskyite,CaMg(VO4)F,"{""Ca"": 1.0, ""Mg"": 1.0, ""V"": 1.0, ""O"": 4.0, ""F"": 1.0}",198.319,#FFFFFF,monoclinic
Rhabdophane-(Ce),Ce(PO4)·H2O,"{""Ce"": 1.0, ""P"": 1.0, ""O"": 5.0, ""H"": 2.0}",253.105,#FFFFFF,hexagonal
Rhabdophane-(La),La(PO4)·H2O,"{""La"": 1.0, ""P"": 1.0, ""O"": 5.0, ""H"": 2.0}",251.895,#FFFFFF,
Rhabdophane-(Nd),Nd(PO4)·H2O,"{""Nd"": 1.0, ""P"": 1.0, ""O"": 5.0, ""H"": 2.0}",257.225,#FFFFFF,
Rhabdophane-(Y),Y(PO4)·H2O,"{""Y"": 1.0, ""P"": 1.0, ""O"": 5.0, ""H"": 2.0}",201.891,#FFFFFF,hexagonal
Rheniite,ReS2,"{""Re"": 1.0, ""S"": 2.0}",250.33,#A9A9A9,triclinic
Rhodarsenide,Rh2As,"{""Rh"": 2.0, ""As"": 1.0}",280.742,#808080,orthorhombic
Rhodesite,KHCa2Si8O19·5H2O,"{""K"": 1.0, ""H"": 11.0, ""Ca"": 2.0, ""Si"": 8.0, ""O"": 24.0}",738.998,#FFFFFF,orthorhombic
Rhodium,Rh,"{""Rh"": 1.0}",102.91,#FFFFFF,cubic
Rhodizite,KBe4Al4(B11Be)O28,"{""K"": 1.0, ""Be"": 5.0, ""Al"": 4.0, ""B"": 11.0, ""O"": 28.0}",758.969,#FFFFFF,cubic
Rhodplumsite,Rh3Pb2S2,"{""Rh"": 3.0, ""Pb"": 2.0, ""S"": 2.0}",787.25,#708090,hexagonal
Rhomboclase,(H5O2)Fe3+(SO4)2·2H2O,"{""H"": 9.0, ""O"": 12.0, ""Fe"": 1.0, ""S"": 2.0}",321.025,#556B2F,orthorhombic
Rhonite,Ca4[Mg8Fe3+2Ti2]O4[Si6Al6O36],"{""Ca"": 4.0, ""Mg"": 8.0, ""Fe"": 2.0, ""Ti"": 2.0, ""O"": 40.0, ""Si"": 6.0, ""Al"": 6.0}",1532.538,#556B2F,triclinic
Richardsollyite,TlPbAsS3,"{""Tl"": 1.0, ""Pb"": 1.0, ""As"": 1.0, ""S"": 3.0}",582.682,#708090,monoclinic
Richelsdorfite,Ca2Cu5Sb5+(AsO4)4(OH)6Cl·6H2O,"{""Ca"": 2.0, ""Cu"": 5.0, ""Sb"": 1.0, ""As"": 4.0, ""O"": 28.0, ""H"": 18.0, ""Cl"": 1.0}",1320.9,#FFFFFF,monoclinic
Richterite,Na(NaCa)Mg5Si8O22(OH)2,"{""Na"": 2.0, ""Ca"": 1.0, ""Mg"": 5.0, ""Si"": 8.0, ""O"": 24.0, ""H"": 2.0}",818.255,#FFFFFF,monoclinic
Rickturnerite,Pb7O4[Mg(OH)4](OH)Cl3,"{""Pb"": 7.0, ""O"": 9.0, ""Mg"": 1.0, ""H"": 5.0, ""Cl"": 3.0}",1730.086,#FFFFFF,orthorhombic
Riesite,TiO2,"{""Ti"": 1.0, ""O"": 2.0}",79.865,#FFFFFF,monoclinic
Rietveldite,Fe(UO2)(SO4)2(H2O)5,"{""Fe"": 1.0, ""U"": 1.0, ""O"": 15.0, ""S"": 2.0, ""H"": 10.0}",608.06,#556B2F,orthorhombic
Rilandite,Cr6SiO11·5H2O (?),"{""Cr"": 6.0, ""Si"": 1.0, ""O"": 16.0, ""H"": 10.0}",606.125,#FFFFFF,
Rimkorolgite,BaMg5(PO4)4·8H2O,"{""Ba"": 1.0, ""Mg"": 5.0, ""P"": 4.0, ""O"": 24.0, ""H"": 16.0}",782.855,#FFFFFF,monoclinic
Ringwoodite,SiMg2O4,"{""Si"": 1.0, ""Mg"": 2.0, ""O"": 4.0}",140.691,#FFFFFF,cubic
Rinkite-(Ce),Ca2(CaCe)Na(NaCa)Ti(Si2O7)2(OF)F2,"{""Ca"": 4.0, ""Ce"": 1.0, ""Na"": 2.0, ""Ti"": 1.0, ""Si"": 4.0, ""O"": 15.0, ""F"": 3.0}",803.598,#FFFFFF,monoclinic
Rinkite-(Y),Ca2(CaY)Na(NaCa)Ti(Si2O7)2(OF)F2,"{""Ca"": 4.0, ""Y"": 1.0, ""Na"": 2.0, ""Ti"": 1.0, ""Si"": 4.0, ""O"": 15.0, ""F"": 3.0}",752.384,#FFFFFF,monoclinic
Rinneite,K3NaFe2+Cl6,"{""K"": 3.0, ""Na"": 1.0, ""Fe"": 1.0, ""Cl"": 6.0}",408.829,#556B2F,hexagonal
Riomarinaite,Bi(SO4)(OH)·H2O,"{""Bi"": 1.0, ""S"": 1.0, ""O"": 6.0, ""H"": 3.0}",340.058,#FFFFFF,monoclinic
Riosecoite,Ca2Mg(AsO3OH)3(H2O)2,"{""Ca"": 2.0, ""Mg"": 1.0, ""As"": 3.0, ""O"": 14.0, ""H"": 7.0}",560.269,#FFFFFF,triclinic
Riotintoite,Al(SO4)(OH)·3H2O,"{""Al"": 1.0, ""S"": 1.0, ""O"": 8.0, ""H"": 7.0}",194.09,#FFFFFF,triclinic
Rivadavite,Na6Mg[B6O7(OH)6]4·10H2O,"{""Na"": 6.0, ""Mg"": 1.0, ""B"": 24.0, ""O"": 62.0, ""H"": 44.0}",1457.975,#FFFFFF,monoclinic
Riversideite,Ca5Si6O16(OH)2·2H2O,"{""Ca"": 5.0, ""Si"": 6.0, ""O"": 20.0, ""H"": 6.0}",694.928,#FFFFFF,
Robinsonite,Pb4Sb6S13,"{""Pb"": 4.0, ""Sb"": 6.0, ""S"": 13.0}",1976.14,#708090,monoclinic
Rodalquilarite,H3Fe3+2(Te4+O3)4Cl,"{""H"": 3.0, ""Fe"": 2.0, ""Te"": 4.0, ""O"": 12.0, ""Cl"": 1.0}",852.552,#556B2F,triclinic
Rodolicoite,Fe3+(PO4),"{""Fe"": 1.0, ""P"": 1.0, ""O"": 4.0}",150.815,#8B4513,hexagonal
Roedderite,KNaMg2(Mg3Si12)O30,"{""K"": 1.0, ""Na"": 1.0, ""Mg"": 5.0, ""Si"": 12.0, ""O"": 30.0}",1000.603,#FFFFFF,hexagonal
Rogermitchellite,Na6Sr12Ba2Zr13Si39B6O123(OH)14·10H2O,"{""Na"": 6.0, ""Sr"": 12.0, ""Ba"": 2.0, ""Zr"": 13.0, ""Si"": 39.0, ""B"": 6.0, ""O"": 147.0, ""H"": 34.0}",6196.252,#FFFFFF,hexagonal
Rokuhnite,FeCl2·2H2O,"{""Fe"": 1.0, ""Cl"": 2.0, ""H"": 4.0, ""O"": 2.0}",162.775,#556B2F,monoclinic
Rollandite,Cu3(AsO4)2·4H2O,"{""Cu"": 3.0, ""As"": 2.0, ""O"": 12.0, ""H"": 8.0}",540.534,#FFFFFF,orthorhombic
Romanorlovite,K11Cu9Cl25(OH)4·2H2O,"{""K"": 11.0, ""Cu"": 9.0, ""Cl"": 25.0, ""O"": 6.0, ""H"": 8.0}",1992.3,#FFFFFF,tetragonal
Romerite,Fe2+Fe3+2(SO4)4·14H2O,"{""Fe"": 3.0, ""S"": 4.0, ""O"": 30.0, ""H"": 28.0}",803.969,#556B2F,triclinic
Rondorfite,Ca8Mg(SiO4)4Cl2,"{""Ca"": 8.0, ""Mg"": 1.0, ""Si"": 4.0, ""O"": 16.0, ""Cl"": 2.0}",784.153,#FFFFFF,cubic
Rongibbsite,Pb2(Si4Al)O11(OH),"{""Pb"": 2.0, ""Si"": 4.0, ""Al"": 1.0, ""O"": 12.0, ""H"": 1.0}",746.718,#FFFFFF,monoclinic
Ronpetersonite,BaWO4,"{""Ba"": 1.0, ""W"": 1.0, ""O"": 4.0}",385.166,#FFFFFF,tetragonal
Rontgenite-(Ce),Ca2Ce3(CO3)5F3,"{""Ca"": 2.0, ""Ce"": 3.0, ""C"": 5.0, ""O"": 15.0, ""F"": 3.0}",857.55,#FFFFFF,hexagonal
Rooseveltite,Bi(AsO4),"{""Bi"": 1.0, ""As"": 1.0, ""O"": 4.0}",347.898,#808080,monoclinic
Rorisite,CaClF,"{""Ca"": 1.0, ""Cl"": 1.0, ""F"": 1.0}",94.526,#FFFFFF,tetragonal
Roscoelite,KV3+2(Si3Al)O10(OH)2,"{""K"": 1.0, ""V"": 2.0, ""Si"": 3.0, ""Al"": 1.0, ""O"": 12.0, ""H"": 2.0}",446.223,#FFFFFF,
Roselite,Ca2Co(AsO4)2·2H2O,"{""Ca"": 2.0, ""Co"": 1.0, ""As"": 2.0, ""O"": 10.0, ""H"": 4.0}",452.955,#FFFFFF,monoclinic
Rosenbuschite,Ca6Zr2Na6ZrTi(Si2O7)4(OF)2F4,"{""Ca"": 6.0, ""Zr"": 3.0, ""Na"": 6.0, ""Ti"": 1.0, ""Si"": 8.0, ""O"": 30.0, ""F"": 6.0}",1518.585,#FFFFFF,triclinic
Rosenhahnite,Ca3Si3O8(OH)2,"{""Ca"": 3.0, ""Si"": 3.0, ""O"": 10.0, ""H"": 2.0}",366.495,#FFFFFF,triclinic
Rosiaite,PbSb2O6,"{""Pb"": 1.0, ""Sb"": 2.0, ""O"": 6.0}",546.714,#A9A9A9,hexagonal
Rosickyite,S,"{""S"": 1.0}",32.06,#A9A9A9,monoclinic
Rossiantonite,Al3(PO4)(SO4)2(OH)2(H2O)10·4H2O,"{""Al"": 3.0, ""P"": 1.0, ""O"": 28.0, ""S"": 2.0, ""H"": 30.0}",654.252,#FFFFFF,triclinic
Rossite,Ca(VO3)2·4H2O,"{""Ca"": 1.0, ""V"": 2.0, ""O"": 10.0, ""H"": 8.0}",310.016,#FFFFFF,triclinic
Rosslerite,Mg(AsO3OH)·7H2O,"{""Mg"": 1.0, ""As"": 1.0, ""O"": 11.0, ""H"": 15.0}",290.336,#FFFFFF,monoclinic
Rossovskyite,Fe3+NbO4,"{""Fe"": 1.0, ""Nb"": 1.0, ""O"": 4.0}",212.747,#8B4513,monoclinic
Rostite,Al(SO4)(OH)·5H2O,"{""Al"": 1.0, ""S"": 1.0, ""O"": 10.0, ""H"": 11.0}",230.12,#FFFFFF,orthorhombic
Rotemite,Ca4Cr2(OH)12Cl2·4H2O,"{""Ca"": 4.0, ""Cr"": 2.0, ""O"": 16.0, ""H"": 20.0, ""Cl"": 2.0}",611.348,#FFFFFF,hexagonal
Roterbarite,PdCuBiSe3,"{""Pd"": 1.0, ""Cu"": 1.0, ""Bi"": 1.0, ""Se"": 3.0}",615.859,#FFFFFF,orthorhombic
Rouaite,Cu2(NO3)(OH)3,"{""Cu"": 2.0, ""N"": 1.0, ""O"": 6.0, ""H"": 3.0}",240.117,#FFFFFF,monoclinic
Roubaultite,Cu2O2(UO2)3(CO3)2(OH)2·4H2O,"{""Cu"": 2.0, ""O"": 20.0, ""U"": 3.0, ""C"": 2.0, ""H"": 10.0}",1195.264,#FFFFFF,triclinic
Routhierite,TlCuHg2As2S6,"{""Tl"": 1.0, ""Cu"": 1.0, ""Hg"": 2.0, ""As"": 2.0, ""S"": 6.0}",1011.31,#FFD700,tetragonal
Rouvilleite,Na3Ca2(CO3)3F,"{""Na"": 3.0, ""Ca"": 2.0, ""C"": 3.0, ""O"": 9.0, ""F"": 1.0}",348.148,#FFFFFF,monoclinic
Rowlandite-(Y),Fe2+Y4(Si2O7)2F2,"{""Fe"": 1.0, ""Y"": 4.0, ""Si"": 4.0, ""O"": 14.0, ""F"": 2.0}",785.791,#556B2F,
Roxbyite,Cu9S5,"{""Cu"": 9.0, ""S"": 5.0}",732.214,#A9A9A9,triclinic
Roymillerite,Pb24Mg9(Si10O28)(CO3)10(BO3)(SiO4)(OH)13O5,"{""Pb"": 24.0, ""Mg"": 9.0, ""Si"": 11.0, ""O"": 83.0, ""C"": 10.0, ""B"": 1.0, ""H"": 13.0}",6972.421,#FFFFFF,triclinic
Rozenite,Fe2+(SO4)·4H2O,"{""Fe"": 1.0, ""S"": 1.0, ""O"": 8.0, ""H"": 8.0}",223.961,#556B2F,monoclinic
Rruffite,Ca2Cu(AsO4)2·2H2O,"{""Ca"": 2.0, ""Cu"": 1.0, ""As"": 2.0, ""O"": 10.0, ""H"": 4.0}",457.568,#FFFFFF,monoclinic
Ruarsite,RuAsS,"{""Ru"": 1.0, ""As"": 1.0, ""S"": 1.0}",208.052,#FFD700,monoclinic
Rubicline,Rb(AlSi3O8),"{""Rb"": 1.0, ""Al"": 1.0, ""Si"": 3.0, ""O"": 8.0}",324.697,#FFFFFF,monoclinic
Rubinite,Ca3Ti3+2Si3O12,"{""Ca"": 3.0, ""Ti"": 2.0, ""Si"": 3.0, ""O"": 12.0}",492.211,#FFFFFF,cubic
Rucklidgeite,PbBi2Te4,"{""Pb"": 1.0, ""Bi"": 2.0, ""Te"": 4.0}",1135.56,#D2B48C,hexagonal
Rudabanyaite,(Ag2Hg2)(AsO4)Cl,"{""Ag"": 2.0, ""Hg"": 2.0, ""As"": 1.0, ""O"": 4.0, ""Cl"": 1.0}",791.288,#FFFFFF,cubic
Rudolfhermannite,Fe3+2(Te4+O3)3·H2O,"{""Fe"": 2.0, ""Te"": 3.0, ""O"": 10.0, ""H"": 2.0}",656.496,#556B2F,hexagonal
Ruitenbergite,Ca9B26O34(OH)24Cl4·13H2O,"{""Ca"": 9.0, ""B"": 26.0, ""O"": 71.0, ""H"": 50.0, ""Cl"": 4.0}",1969.891,#FFFFFF,monoclinic
Rumseyite,[Pb2OF]Cl,"{""Pb"": 2.0, ""O"": 1.0, ""F"": 1.0, ""Cl"": 1.0}",484.847,#FFFFFF,tetragonal
Rusinovite,Ca10(Si2O7)3Cl2,"{""Ca"": 10.0, ""Si"": 6.0, ""O"": 21.0, ""Cl"": 2.0}",976.169,#FFFFFF,orthorhombic
Russellite,Bi2WO6,"{""Bi"": 2.0, ""W"": 1.0, ""O"": 6.0}",697.794,#D2B48C,tetragonal
Rustumite,Ca10(Si2O7)2(SiO4)(OH)2Cl2,"{""Ca"": 10.0, ""Si"": 5.0, ""O"": 20.0, ""H"": 2.0, ""Cl"": 2.0}",934.101,#FFFFFF,monoclinic
Ruthenium,Ru,"{""Ru"": 1.0}",101.07,#FFFFFF,hexagonal
Rutherfordine,(UO2)(CO3),"{""U"": 1.0, ""O"": 5.0, ""C"": 1.0}",330.036,#ADFF2F,orthorhombic
Rutile,TiO2,"{""Ti"": 1.0, ""O"": 2.0}",79.865,#FFFFFF,tetragonal
Ryabchikovite,CuMgSi2O6,"{""Cu"": 1.0, ""Mg"": 1.0, ""Si"": 2.0, ""O"": 6.0}",240.015,#FFFFFF,monoclinic
Rynersonite,CaTa2O6,"{""Ca"": 1.0, ""Ta"": 2.0, ""O"": 6.0}",497.972,#FFFFFF,orthorhombic
Sabatierite,Cu6TlSe4,"{""Cu"": 6.0, ""Tl"": 1.0, ""Se"": 4.0}",901.54,#00BFFF,tetragonal
Sabieite,(NH4)Fe3+(SO4)2,"{""N"": 1.0, ""H"": 4.0, ""Fe"": 1.0, ""S"": 2.0, ""O"": 8.0}",265.996,#556B2F,hexagonal
Sabinaite,Na4TiZr2O4(CO3)4,"{""Na"": 4.0, ""Ti"": 1.0, ""Zr"": 2.0, ""O"": 16.0, ""C"": 4.0}",626.303,#FFFFFF,monoclinic
Sabugalite,HAl(UO2)4(PO4)4·16H2O,"{""H"": 33.0, ""Al"": 1.0, ""U"": 4.0, ""O"": 40.0, ""P"": 4.0}",1776.222,#FFFFFF,tetragonal
Sacrofanite,(Na61K19Ca32)Σ=112(Si84Al84O336)(SO4)26Cl2F6·2H2O,"{""Na"": 6832.0, ""K"": 2128.0, ""Ca"": 3584.0, ""Si"": 84.0, ""Al"": 84.0, ""O"": 442.0, ""S"": 26.0, ""Cl"": 2.0, ""F"": 6.0, ""H"": 4.0}",396627.442,#FFFFFF,hexagonal
Sadanagaite,NaCa2(Mg3Al2)(Si5Al3)O22(OH)2,"{""Na"": 1.0, ""Ca"": 2.0, ""Mg"": 3.0, ""Al"": 5.0, ""Si"": 5.0, ""O"": 24.0, ""H"": 2.0}",837.388,#FFFFFF,monoclinic
Saddlebackite,Pb2Bi2Te2S3,"{""Pb"": 2.0, ""Bi"": 2.0, ""Te"": 2.0, ""S"": 3.0}",1183.74,#708090,hexagonal
Safflorite,CoAs2,"{""Co"": 1.0, ""As"": 2.0}",208.777,#4169E1,orthorhombic
Sahamalite-(Ce),Ce2Mg(CO3)4,"{""Ce"": 2.0, ""Mg"": 1.0, ""C"": 4.0, ""O"": 12.0}",544.577,#FFFFFF,monoclinic
Sahlinite,Pb14O9(AsO4)2Cl4,"{""Pb"": 14.0, ""O"": 17.0, ""As"": 2.0, ""Cl"": 4.0}",3464.427,#FFFFFF,monoclinic
Sainfeldite,Ca5(AsO4)2(AsO3OH)2·4H2O,"{""Ca"": 5.0, ""As"": 4.0, ""O"": 20.0, ""H"": 10.0}",830.138,#FFFFFF,monoclinic
Salammoniac,(NH4)Cl,"{""N"": 1.0, ""H"": 4.0, ""Cl"": 1.0}",53.489,#FFFFFF,cubic
Saleeite,Mg(UO2)2(PO4)2(H2O)10,"{""Mg"": 1.0, ""U"": 2.0, ""O"": 22.0, ""P"": 2.0, ""H"": 20.0}",934.451,#FFFFFF,monoclinic
Salesite,Cu(IO3)(OH),"{""Cu"": 1.0, ""I"": 1.0, ""O"": 4.0, ""H"": 1.0}",255.45,#FFFFFF,orthorhombic
Samaniite,Cu2Fe5Ni2S8,"{""Cu"": 2.0, ""Fe"": 5.0, ""Ni"": 2.0, ""S"": 8.0}",780.183,#DAA520,tetragonal
Samarskite-(Y),YFe3+Nb2O8,"{""Y"": 1.0, ""Fe"": 1.0, ""Nb"": 2.0, ""O"": 8.0}",458.555,#556B2F,monoclinic
Samarskite-(Yb),YbNbO4,"{""Yb"": 1.0, ""Nb"": 1.0, ""O"": 4.0}",329.952,#FFFFFF,monoclinic
Sampleite,NaCaCu5(PO4)4Cl·5H2O,"{""Na"": 1.0, ""Ca"": 1.0, ""Cu"": 5.0, ""P"": 4.0, ""O"": 21.0, ""Cl"": 1.0, ""H"": 10.0}",886.203,#FFFFFF,monoclinic
Samraite,Ni2P2O7,"{""Ni"": 2.0, ""P"": 2.0, ""O"": 7.0}",291.327,#7FFF00,monoclinic
Sanbornite,BaSi2O5,"{""Ba"": 1.0, ""Si"": 2.0, ""O"": 5.0}",273.495,#FFFFFF,orthorhombic
Sanderite,Mg(SO4)·2H2O,"{""Mg"": 1.0, ""S"": 1.0, ""O"": 6.0, ""H"": 4.0}",156.391,#FFFFFF,orthorhombic
Sanguite,KCuCl3,"{""K"": 1.0, ""Cu"": 1.0, ""Cl"": 3.0}",208.994,#00BFFF,monoclinic
Sanidine,K(AlSi3O8),"{""K"": 1.0, ""Al"": 1.0, ""Si"": 3.0, ""O"": 8.0}",278.327,#FFFFFF,monoclinic