name,formula,elements,density,color,crystal_system,dna
Balyakinite,Cu2+(Te4+O3),"{""Cu"": 1.0, ""Te"": 1.0, ""O"": 3.0}",239.15,#00BFFF,orthorhombic,"{""system"": ""orthorhombic"", ""scale"": [0.8, 1.0, 1.2], ""optical"": {""transparent"": 0, ""refraction"": 0.0, ""birefringence"": 0.0}}"
Bamfordite,Fe3+Mo2O6(OH)3·H2O,"{""Fe"": 1.0, ""Mo"": 2.0, ""O"": 10.0, ""H"": 5.0}",412.79,#556B2F,triclinic,"{""system"": ""triclinic"", ""scale"": [0.7, 1.0, 1.3], ""optical"": {""transparent"": 0, ""refraction"": 0.0, ""birefringence"": 0.0}}"
Banalsite,Na2BaAl4Si4O16,"{""Na"": 2.0, ""Ba"": 1.0, ""Al"": 4.0, ""Si"": 4.0, ""O"": 16.0}",659.59,#FFFFFF,orthorhombic,"{""system"": ""orthorhombic"", ""scale"": [0.8, 1.0, 1.2], ""optical"": {""transparent"": 1, ""refraction"": 1.5, ""birefringence"": 0.01}}"
Bandylite,CuB(OH)4Cl,"{""Cu"": 1.0, ""B"": 1.0, ""O"": 4.0, ""H"": 4.0, ""Cl"": 1.0}",177.84,#FFFFFF,tetragonal,"{""system"": ""tetragonal"", ""scale"": [1.0, 1.0, 1.4], ""optical"": {""transparent"": 1, ""refraction"": 1.5, ""birefringence"": 0.01}}"
Bararite,(NH4)2SiF6,"{""N"": 2.0, ""H"": 8.0, ""Si"": 1.0, ""F"": 6.0}",178.17,#FFFFFF,hexagonal,"{""system"": ""hexagonal"", ""scale"": [1.0, 1.0, 1.6], ""optical"": {""transparent"": 1, ""refraction"": 1.5, ""birefringence"": 0.01}}"
Baratovite,KLi3Ca7Ti2(SiO3)12F2,"{""K"": 1.0, ""Li"": 3.0, ""Ca"": 7.0, ""Ti"": 2.0, ""Si"": 12.0, ""O"": 36.0, ""F"": 2.0}",1387.3,#FFFFFF,monoclinic,"{""system"": ""monoclinic"", ""scale"": [0.7, 1.0, 1.3], ""optical"": {""transparent"": 1, ""refraction"": 1.5, ""birefringence"": 0.01}}"
Barberiite,(NH4)BF4,"{""N"": 1.0, ""H"": 4.0, ""B"": 1.0, ""F"": 4.0}",104.85,#FFFFFF,orthorhombic,"{""system"": ""orthorhombic"", ""scale"": [0.8, 1.0, 1.2], ""optical"": {""transparent"": 1, ""refraction"": 1.5, ""birefringence"": 0.01}}"
Barbosalite,Fe2+Fe3+2(PO4)2(OH)2,"{""Fe"": 3.0, ""P"": 2.0, ""O"": 10.0, ""H"": 2.0}",391.51,#556B2F,monoclinic,"{""system"": ""monoclinic"", ""scale"": [0.7, 1.0, 1.3], ""optical"": {""transparent"": 0, ""refraction"": 0.0, ""birefringence"": 0.0}}"
Barentsite,Na7Al(HCO3)2(CO3)2F4,"{""Na"": 7.0, ""Al"": 1.0, ""H"": 2.0, ""C"": 4.0, ""O"": 12.0, ""F"": 4.0}",505.97,#FFFFFF,triclinic,"{""system"": ""triclinic"", ""scale"": [0.7, 1.0, 1.3], ""optical"": {""transparent"": 1, ""refraction"": 1.5, ""birefringence"": 0.01}}"
Barikaite,Ag3Pb10(Sb8As11)Σ19S40,"{""Ag"": 3.0, ""Pb"": 10.0, ""Sb"": 152.0, ""As"": 209.0, ""S"": 40.0}",37843.81,#708090,monoclinic,"{""system"": ""monoclinic"", ""scale"": [0.7, 1.0, 1.3], ""optical"": {""transparent"": 0, ""refraction"": 0.0, ""birefringence"": 0.0}}"
Barioferrite,BaFe3+12O19,"{""Ba"": 1.0, ""Fe"": 12.0, ""O"": 19.0}",1111.53,#8B4513,hexagonal,"{""system"": ""hexagonal"", ""scale"": [1.0, 1.0, 1.6], ""optical"": {""transparent"": 0, ""refraction"": 0.0, ""birefringence"": 0.0}}"
Bariolakargiite,BaZrO3,"{""Ba"": 1.0, ""Zr"": 1.0, ""O"": 3.0}",276.55,#FFFFFF,cubic,"{""system"": ""cubic"", ""scale"": [1.0, 1.0, 1.0], ""optical"": {""transparent"": 1, ""refraction"": 1.5, ""birefringence"": 0.0}}"
Bario-orthojoaquinite,Ba4Fe2+2Ti2O2(SiO3)8·H2O,"{""Ba"": 4.0, ""Fe"": 2.0, ""Ti"": 2.0, ""O"": 27.0, ""Si"": 8.0, ""H"": 2.0}",1415.5,#556B2F,orthorhombic,"{""system"": ""orthorhombic"", ""scale"": [0.8, 1.0, 1.2], ""optical"": {""transparent"": 0, ""refraction"": 0.0, ""birefringence"": 0.0}}"
Barioperovskite,BaTiO3,"{""Ba"": 1.0, ""Ti"": 1.0, ""O"": 3.0}",233.2,#FFFFFF,orthorhombic,"{""system"": ""orthorhombic"", ""scale"": [0.8, 1.0, 1.2], ""optical"": {""transparent"": 1, ""refraction"": 1.5, ""birefringence"": 0.01}}"
Bariosincosite,Ba(VO)2(PO4)2·4H2O,"{""Ba"": 1.0, ""V"": 2.0, ""O"": 14.0, ""P"": 2.0, ""H"": 8.0}",533.21,#FFFFFF,monoclinic,"{""system"": ""monoclinic"", ""scale"": [0.7, 1.0, 1.3], ""optical"": {""transparent"": 1, ""refraction"": 1.5, ""birefringence"": 0.01}}"
Barlowite,Cu4BrF(OH)6,"{""Cu"": 4.0, ""Br"": 1.0, ""F"": 1.0, ""O"": 6.0, ""H"": 6.0}",455.15,#FFFFFF,hexagonal,"{""system"": ""hexagonal"", ""scale"": [1.0, 1.0, 1.6], ""optical"": {""transparent"": 1, ""refraction"": 1.5, ""birefringence"": 0.01}}"
Barnesite,Na2V5+6O16·3H2O,"{""Na"": 2.0, ""V"": 6.0, ""O"": 19.0, ""H"": 6.0}",661.67,#FFFFFF,monoclinic,"{""system"": ""monoclinic"", ""scale"": [0.7, 1.0, 1.3], ""optical"": {""transparent"": 1, ""refraction"": 1.5, ""birefringence"": 0.01}}"
Barrerite,Na2(Si7Al2)O18·6H2O,"{""Na"": 2.0, ""Si"": 7.0, ""Al"": 2.0, ""O"": 24.0, ""H"": 12.0}",692.67,#FFFFFF,orthorhombic,"{""system"": ""orthorhombic"", ""scale"": [0.8, 1.0, 1.2], ""optical"": {""transparent"": 1, ""refraction"": 1.5, ""birefringence"": 0.01}}"
Barstowite,Pb4(CO3)Cl6·H2O,"{""Pb"": 4.0, ""C"": 1.0, ""O"": 4.0, ""Cl"": 6.0, ""H"": 2.0}",1119.53,#FFFFFF,monoclinic,"{""system"": ""monoclinic"", ""scale"": [0.7, 1.0, 1.3], ""optical"": {""transparent"": 1, ""refraction"": 1.5, ""birefringence"": 0.01}}"
Bartelkeite,PbFe2+Ge(Ge2O7)(OH)2·H2O,"{""Pb"": 1.0, ""Fe"": 1.0, ""Ge"": 3.0, ""O"": 10.0, ""H"": 4.0}",644.97,#556B2F,monoclinic,"{""system"": ""monoclinic"", ""scale"": [0.7, 1.0, 1.3], ""optical"": {""transparent"": 0, ""refraction"": 0.0, ""birefringence"": 0.0}}"
Bartonite,K6Fe20S26S,"{""K"": 6.0, ""Fe"": 20.0, ""S"": 27.0}",2217.22,#DAA520,tetragonal,"{""system"": ""tetragonal"", ""scale"": [1.0, 1.0, 1.4], ""optical"": {""transparent"": 0, ""refraction"": 0.0, ""birefringence"": 0.0}}"
Barylite,BaBe2Si2O7,"{""Ba"": 1.0, ""Be"": 2.0, ""Si"": 2.0, ""O"": 7.0}",323.53,#FFFFFF,monoclinic,"{""system"": ""monoclinic"", ""scale"": [0.7, 1.0, 1.3], ""optical"": {""transparent"": 1, ""refraction"": 1.5, ""birefringence"": 0.01}}"
Baryte,Ba(SO4),"{""Ba"": 1.0, ""S"": 1.0, ""O"": 4.0}",233.39,#FFFF00,orthorhombic,"{""system"": ""orthorhombic"", ""scale"": [0.8, 1.0, 1.2], ""optical"": {""transparent"": 0, ""refraction"": 0.0, ""birefringence"": 0.0}}"
Barytocalcite,BaCa(CO3)2,"{""Ba"": 1.0, ""Ca"": 1.0, ""C"": 2.0, ""O"": 6.0}",297.43,#FFFFFF,monoclinic,"{""system"": ""monoclinic"", ""scale"": [0.7, 1.0, 1.3], ""optical"": {""transparent"": 1, ""refraction"": 1.5, ""birefringence"": 0.01}}"
Barytolamprophyllite,(BaK)Ti2Na3Ti(Si2O7)2O2(OH)2,"{""Ba"": 1.0, ""K"": 1.0, ""Ti"": 3.0, ""Na"": 3.0, ""Si"": 4.0, ""O"": 18.0, ""H"": 2.0}",791.39,#FFFFFF,monoclinic,"{""system"": ""monoclinic"", ""scale"": [0.7, 1.0, 1.3], ""optical"": {""transparent"": 1, ""refraction"": 1.5, ""birefringence"": 0.01}}"
Bassetite,Fe2+(UO2)2(PO4)2(H2O)10,"{""Fe"": 1.0, ""U"": 2.0, ""O"": 22.0, ""P"": 2.0, ""H"": 20.0}",966.01,#556B2F,tetragonal,"{""system"": ""tetragonal"", ""scale"": [1.0, 1.0, 1.4], ""optical"": {""transparent"": 0, ""refraction"": 0.0, ""birefringence"": 0.0}}"
Bassoite,SrV4+3O7·4H2O,"{""Sr"": 1.0, ""V"": 3.0, ""O"": 11.0, ""H"": 8.0}",424.5,#FFFFFF,monoclinic,"{""system"": ""monoclinic"", ""scale"": [0.7, 1.0, 1.3], ""optical"": {""transparent"": 1, ""refraction"": 1.5, ""birefringence"": 0.01}}"
Bastnasite-(Ce),Ce(CO3)F,"{""Ce"": 1.0, ""C"": 1.0, ""O"": 3.0, ""F"": 1.0}",219.13,#FFFFFF,hexagonal,"{""system"": ""hexagonal"", ""scale"": [1.0, 1.0, 1.6], ""optical"": {""transparent"": 1, ""refraction"": 1.5, ""birefringence"": 0.01}}"
Bastnasite-(La),La(CO3)F,"{""La"": 1.0, ""C"": 1.0, ""O"": 3.0, ""F"": 1.0}",217.92,#FFFFFF,hexagonal,"{""system"": ""hexagonal"", ""scale"": [1.0, 1.0, 1.6], ""optical"": {""transparent"": 1, ""refraction"": 1.5, ""birefringence"": 0.01}}"
Bastnasite-(Nd),Nd(CO3)F,"{""Nd"": 1.0, ""C"": 1.0, ""O"": 3.0, ""F"": 1.0}",223.25,#FFFFFF,hexagonal,"{""system"": ""hexagonal"", ""scale"": [1.0, 1.0, 1.6], ""optical"": {""transparent"": 1, ""refraction"": 1.5, ""birefringence"": 0.01}}"
Bastnasite-(Y),Y(CO3)F,"{""Y"": 1.0, ""C"": 1.0, ""O"": 3.0, ""F"": 1.0}",167.92,#FFFFFF,hexagonal,"{""system"": ""hexagonal"", ""scale"": [1.0, 1.0, 1.6], ""optical"": {""transparent"": 1, ""refraction"": 1.5, ""birefringence"": 0.01}}"
Batiferrite,BaTi2Fe3+8Fe2+2O19,"{""Ba"": 1.0, ""Ti"": 2.0, ""Fe"": 10.0, ""O"": 19.0}",1095.57,#556B2F,hexagonal,"{""system"": ""hexagonal"", ""scale"": [1.0, 1.0, 1.6], ""optical"": {""transparent"": 0, ""refraction"": 0.0, ""birefringence"": 0.0}}"
Batisite,Na2BaTi2O2(Si2O6)2,"{""Na"": 2.0, ""Ba"": 1.0, ""Ti"": 2.0, ""O"": 14.0, ""Si"": 4.0}",615.41,#FFFFFF,orthorhombic,"{""system"": ""orthorhombic"", ""scale"": [0.8, 1.0, 1.2], ""optical"": {""transparent"": 1, ""refraction"": 1.5, ""birefringence"": 0.01}}"
Batoniite,Al8(SO4)5(OH)14(H2O)18·5H2O,"{""Al"": 8.0, ""S"": 5.0, ""O"": 57.0, ""H"": 60.0}",1348.62,#FFFFFF,triclinic,"{""system"": ""triclinic"", ""scale"": [0.7, 1.0, 1.3], ""optical"": {""transparent"": 1, ""refraction"": 1.5, ""birefringence"": 0.01}}"
Baumhauerite,Pb12As16S36,"{""Pb"": 12.0, ""As"": 16.0, ""S"": 36.0}",4839.28,#708090,triclinic,"{""system"": ""triclinic"", ""scale"": [0.7, 1.0, 1.3], ""optical"": {""transparent"": 0, ""refraction"": 0.0, ""birefringence"": 0.0}}"
Baumhauerite II,Pb3As4S9,"{""Pb"": 3.0, ""As"": 4.0, ""S"": 9.0}",1209.82,#708090,triclinic,"{""system"": ""triclinic"", ""scale"": [0.7, 1.0, 1.3], ""optical"": {""transparent"": 0, ""refraction"": 0.0, ""birefringence"": 0.0}}"
Baumstarkite,Ag3Sb3S6,"{""Ag"": 3.0, ""Sb"": 3.0, ""S"": 6.0}",881.25,#A9A9A9,triclinic,"{""system"": ""triclinic"", ""scale"": [0.7, 1.0, 1.3], ""optical"": {""transparent"": 0, ""refraction"": 0.0, ""birefringence"": 0.0}}"
Bauranoite,BaU2O7·4-5H2O,"{""Ba"": 1.0, ""U"": 2.0, ""O"": 12.0, ""H"": 10.0}",815.47,#FFFFFF,,"{""system"": """", ""scale"": [1.0, 1.0, 1.0], ""optical"": {""transparent"": 1, ""refraction"": 1.5, ""birefringence"": 0.01}}"
Bavsiite,Ba2V2O2[Si4O12],"{""Ba"": 2.0, ""V"": 2.0, ""O"": 14.0, ""Si"": 4.0}",712.9,#FFFFFF,tetragonal,"{""system"": ""tetragonal"", ""scale"": [1.0, 1.0, 1.4], ""optical"": {""transparent"": 1, ""refraction"": 1.5, ""birefringence"": 0.01}}"
Bayanoboite-(Y),Ba2Y(CO3)2F3,"{""Ba"": 2.0, ""Y"": 1.0, ""C"": 2.0, ""O"": 6.0, ""F"": 3.0}",540.59,#FFFFFF,orthorhombic,"{""system"": ""orthorhombic"", ""scale"": [0.8, 1.0, 1.2], ""optical"": {""transparent"": 1, ""refraction"": 1.5, ""birefringence"": 0.01}}"
Bayerite,Al(OH)3,"{""Al"": 1.0, ""O"": 3.0, ""H"": 3.0}",78.0,#FFFFFF,monoclinic,"{""system"": ""monoclinic"", ""scale"": [0.7, 1.0, 1.3], ""optical"": {""transparent"": 1, ""refraction"": 1.5, ""birefringence"": 0.01}}"
Bayldonite,Cu3PbO(AsO3OH)2(OH)2,"{""Cu"": 3.0, ""Pb"": 1.0, ""O"": 11.0, ""As"": 2.0, ""H"": 4.0}",727.72,#FFFFFF,monoclinic,"{""system"": ""monoclinic"", ""scale"": [0.7, 1.0, 1.3], ""optical"": {""transparent"": 1, ""refraction"": 1.5, ""birefringence"": 0.01}}"
Bayleyite,Mg2(UO2)(CO3)3·18H2O,"{""Mg"": 2.0, ""U"": 1.0, ""O"": 29.0, ""C"": 3.0, ""H"": 36.0}",822.97,#FFFFFF,monoclinic,"{""system"": ""monoclinic"", ""scale"": [0.7, 1.0, 1.3], ""optical"": {""transparent"": 1, ""refraction"": 1.5, ""birefringence"": 0.01}}"
Baylissite,K2Mg(CO3)2·4H2O,"{""K"": 2.0, ""Mg"": 1.0, ""C"": 2.0, ""O"": 10.0, ""H"": 8.0}",294.59,#FFFFFF,monoclinic,"{""system"": ""monoclinic"", ""scale"": [0.7, 1.0, 1.3], ""optical"": {""transparent"": 1, ""refraction"": 1.5, ""birefringence"": 0.01}}"
Bazhenovite,Ca8S5(S2O3)(OH)12·20H2O,"{""Ca"": 8.0, ""S"": 7.0, ""O"": 35.0, ""H"": 52.0}",1157.48,#FFFFFF,monoclinic,"{""system"": ""monoclinic"", ""scale"": [0.7, 1.0, 1.3], ""optical"": {""transparent"": 1, ""refraction"": 1.5, ""birefringence"": 0.01}}"
Bazirite,BaZrSi3O9,"{""Ba"": 1.0, ""Zr"": 1.0, ""Si"": 3.0, ""O"": 9.0}",456.82,#FFFFFF,hexagonal,"{""system"": ""hexagonal"", ""scale"": [1.0, 1.0, 1.6], ""optical"": {""transparent"": 1, ""refraction"": 1.5, ""birefringence"": 0.01}}"
Bearsite,Be2(AsO4)(OH)·4H2O,"{""Be"": 2.0, ""As"": 1.0, ""O"": 9.0, ""H"": 9.0}",246.01,#FFFFFF,monoclinic,"{""system"": ""monoclinic"", ""scale"": [0.7, 1.0, 1.3], ""optical"": {""transparent"": 1, ""refraction"": 1.5, ""birefringence"": 0.01}}"
Bearthite,Ca2Al(PO4)2(OH),"{""Ca"": 2.0, ""Al"": 1.0, ""P"": 2.0, ""O"": 9.0, ""H"": 1.0}",314.09,#FFFFFF,monoclinic,"{""system"": ""monoclinic"", ""scale"": [0.7, 1.0, 1.3], ""optical"": {""transparent"": 1, ""refraction"": 1.5, ""birefringence"": 0.01}}"
Beaverite-(Cu),Pb(Fe3+2Cu)(SO4)2(OH)6,"{""Pb"": 1.0, ""Fe"": 2.0, ""Cu"": 1.0, ""S"": 2.0, ""O"": 14.0, ""H"": 6.0}",676.62,#556B2F,hexagonal,"{""system"": ""hexagonal"", ""scale"": [1.0, 1.0, 1.6], ""optical"": {""transparent"": 0, ""refraction"": 0.0, ""birefringence"": 0.0}}"
Beckettite,Ca2V6Al6O20,"{""Ca"": 2.0, ""V"": 6.0, ""Al"": 6.0, ""O"": 20.0}",867.68,#FFFFFF,triclinic,"{""system"": ""triclinic"", ""scale"": [0.7, 1.0, 1.3], ""optical"": {""transparent"": 1, ""refraction"": 1.5, ""birefringence"": 0.01}}"
Becquerelite,Ca(UO2)6O4(OH)6·8H2O,"{""Ca"": 1.0, ""U"": 6.0, ""O"": 30.0, ""H"": 22.0}",1970.44,#FFFFFF,hexagonal,"{""system"": ""hexagonal"", ""scale"": [1.0, 1.0, 1.6], ""optical"": {""transparent"": 1, ""refraction"": 1.5, ""birefringence"": 0.01}}"
Beershevaite,CaFe3+3(PO4)3O,"{""Ca"": 1.0, ""Fe"": 3.0, ""P"": 3.0, ""O"": 13.0}",508.54,#556B2F,monoclinic,"{""system"": ""monoclinic"", ""scale"": [0.7, 1.0, 1.3], ""optical"": {""transparent"": 0, ""refraction"": 0.0, ""birefringence"": 0.0}}"
Behierite,Ta(BO4),"{""Ta"": 1.0, ""B"": 1.0, ""O"": 4.0}",255.76,#FFFFFF,tetragonal,"{""system"": ""tetragonal"", ""scale"": [1.0, 1.0, 1.4], ""optical"": {""transparent"": 1, ""refraction"": 1.5, ""birefringence"": 0.01}}"
Behoite,Be(OH)2,"{""Be"": 1.0, ""O"": 2.0, ""H"": 2.0}",43.03,#FFFFFF,orthorhombic,"{""system"": ""orthorhombic"", ""scale"": [0.8, 1.0, 1.2], ""optical"": {""transparent"": 1, ""refraction"": 1.5, ""birefringence"": 0.01}}"
Behounekite,U(SO4)2(H2O)4,"{""U"": 1.0, ""S"": 2.0, ""O"": 12.0, ""H"": 8.0}",502.21,#FFFFFF,orthorhombic,"{""system"": ""orthorhombic"", ""scale"": [0.8, 1.0, 1.2], ""optical"": {""transparent"": 1, ""refraction"": 1.5, ""birefringence"": 0.01}}"
Belakovskiite,Na7(UO2)(SO4)4(SO3OH)(H2O)3,"{""Na"": 7.0, ""U"": 1.0, ""O"": 25.0, ""S"": 5.0, ""H"": 7.0}",966.32,#FFFFFF,triclinic,"{""system"": ""triclinic"", ""scale"": [0.7, 1.0, 1.3], ""optical"": {""transparent"": 1, ""refraction"": 1.5, ""birefringence"": 0.01}}"
Belendorffite,Cu7Hg6,"{""Cu"": 7.0, ""Hg"": 6.0}",1648.39,#00BFFF,hexagonal,"{""system"": ""hexagonal"", ""scale"": [1.0, 1.0, 1.6], ""optical"": {""transparent"": 0, ""refraction"": 0.0, ""birefringence"": 0.0}}"
Belkovite,Ba3Nb6(Si2O7)2O12,"{""Ba"": 3.0, ""Nb"": 6.0, ""Si"": 4.0, ""O"": 26.0}",1497.81,#FFFFFF,hexagonal,"{""system"": ""hexagonal"", ""scale"": [1.0, 1.0, 1.6], ""optical"": {""transparent"": 1, ""refraction"": 1.5, ""birefringence"": 0.01}}"
Bellidoite,Cu2Se,"{""Cu"": 2.0, ""Se"": 1.0}",206.06,#00BFFF,tetragonal,"{""system"": ""tetragonal"", ""scale"": [1.0, 1.0, 1.4], ""optical"": {""transparent"": 0, ""refraction"": 0.0, ""birefringence"": 0.0}}"
Bellingerite,Cu3(IO3)6·2H2O,"{""Cu"": 3.0, ""I"": 6.0, ""O"": 20.0, ""H"": 4.0}",1276.08,#FFFFFF,triclinic,"{""system"": ""triclinic"", ""scale"": [0.7, 1.0, 1.3], ""optical"": {""transparent"": 1, ""refraction"": 1.5, ""birefringence"": 0.01}}"
Belloite,Cu(OH)Cl,"{""Cu"": 1.0, ""O"": 1.0, ""H"": 1.0, ""Cl"": 1.0}",116.01,#FFFFFF,monoclinic,"{""system"": ""monoclinic"", ""scale"": [0.7, 1.0, 1.3], ""optical"": {""transparent"": 1, ""refraction"": 1.5, ""birefringence"": 0.01}}"
Belomarinaite,KNa(SO4),"{""K"": 1.0, ""Na"": 1.0, ""S"": 1.0, ""O"": 4.0}",158.15,#FFFFFF,hexagonal,"{""system"": ""hexagonal"", ""scale"": [1.0, 1.0, 1.6], ""optical"": {""transparent"": 1, ""refraction"": 1.5, ""birefringence"": 0.01}}"
Belovite-(Ce),NaCeSr3(PO4)3F,"{""Na"": 1.0, ""Ce"": 1.0, ""Sr"": 3.0, ""P"": 3.0, ""O"": 12.0, ""F"": 1.0}",729.88,#FFFFFF,hexagonal,"{""system"": ""hexagonal"", ""scale"": [1.0, 1.0, 1.6], ""optical"": {""transparent"": 1, ""refraction"": 1.5, ""birefringence"": 0.01}}"
Belovite-(La),NaLaSr3(PO4)3F,"{""Na"": 1.0, ""La"": 1.0, ""Sr"": 3.0, ""P"": 3.0, ""O"": 12.0, ""F"": 1.0}",728.67,#FFFFFF,hexagonal,"{""system"": ""hexagonal"", ""scale"": [1.0, 1.0, 1.6], ""optical"": {""transparent"": 1, ""refraction"": 1.5, ""birefringence"": 0.01}}"
Benauite,SrFe3+3(PO4)(PO3OH)(OH)6,"{""Sr"": 1.0, ""Fe"": 3.0, ""P"": 2.0, ""O"": 14.0, ""H"": 7.0}",548.17,#556B2F,hexagonal,"{""system"": ""hexagonal"", ""scale"": [1.0, 1.0, 1.6], ""optical"": {""transparent"": 0, ""refraction"": 0.0, ""birefringence"": 0.0}}"
Bendadaite,Fe2+Fe3+2(AsO4)2(OH)2·4H2O,"{""Fe"": 3.0, ""As"": 2.0, ""O"": 14.0, ""H"": 10.0}",551.47,#556B2F,monoclinic,"{""system"": ""monoclinic"", ""scale"": [0.7, 1.0, 1.3], ""optical"": {""transparent"": 0, ""refraction"": 0.0, ""birefringence"": 0.0}}"
Benitoite,BaTiSi3O9,"{""Ba"": 1.0, ""Ti"": 1.0, ""Si"": 3.0, ""O"": 9.0}",413.47,#FFFFFF,hexagonal,"{""system"": ""hexagonal"", ""scale"": [1.0, 1.0, 1.6], ""optical"": {""transparent"": 1, ""refraction"": 1.5, ""birefringence"": 0.01}}"
Benjaminite,Ag3Bi7S12,"{""Ag"": 3.0, ""Bi"": 7.0, ""S"": 12.0}",2171.19,#A9A9A9,monoclinic,"{""system"": ""monoclinic"", ""scale"": [0.7, 1.0, 1.3], ""optical"": {""transparent"": 0, ""refraction"": 0.0, ""birefringence"": 0.0}}"
Bennesherite,Ba2Fe2+Si2O7,"{""Ba"": 2.0, ""Fe"": 1.0, ""Si"": 2.0, ""O"": 7.0}",498.69,#556B2F,tetragonal,"{""system"": ""tetragonal"", ""scale"": [1.0, 1.0, 1.4], ""optical"": {""transparent"": 0, ""refraction"": 0.0, ""birefringence"": 0.0}}"
Benstonite,Ba6Ca6Mg(CO3)13,"{""Ba"": 6.0, ""Ca"": 6.0, ""Mg"": 1.0, ""C"": 13.0, ""O"": 39.0}",1868.9,#FFFFFF,hexagonal,"{""system"": ""hexagonal"", ""scale"": [1.0, 1.0, 1.6], ""optical"": {""transparent"": 1, ""refraction"": 1.5, ""birefringence"": 0.01}}"
Bentorite,Ca6Cr2(SO4)3(OH)12·26H2O,"{""Ca"": 6.0, ""Cr"": 2.0, ""S"": 3.0, ""O"": 50.0, ""H"": 64.0}",1305.17,#FFFFFF,hexagonal,"{""system"": ""hexagonal"", ""scale"": [1.0, 1.0, 1.6], ""optical"": {""transparent"": 1, ""refraction"": 1.5, ""birefringence"": 0.01}}"
Beraunite,Fe3+6(PO4)4O(OH)4·6H2O,"{""Fe"": 6.0, ""P"": 4.0, ""O"": 27.0, ""H"": 16.0}",907.11,#556B2F,monoclinic,"{""system"": ""monoclinic"", ""scale"": [0.7, 1.0, 1.3], ""optical"": {""transparent"": 0, ""refraction"": 0.0, ""birefringence"": 0.0}}"
Berborite,Be2(BO3)(OH)·H2O,"{""Be"": 2.0, ""B"": 1.0, ""O"": 5.0, ""H"": 3.0}",111.85,#FFFFFF,hexagonal,"{""system"": ""hexagonal"", ""scale"": [1.0, 1.0, 1.6], ""optical"": {""transparent"": 1, ""refraction"": 1.5, ""birefringence"": 0.01}}"
Berdesinskiite,V3+2TiO5,"{""V"": 2.0, ""Ti"": 1.0, ""O"": 5.0}",229.75,#FFFFFF,monoclinic,"{""system"": ""monoclinic"", ""scale"": [0.7, 1.0, 1.3], ""optical"": {""transparent"": 1, ""refraction"": 1.5, ""birefringence"": 0.01}}"
Berezanskite,KTi2Li3Si12O30,"{""K"": 1.0, ""Ti"": 2.0, ""Li"": 3.0, ""Si"": 12.0, ""O"": 30.0}",972.74,#FFFFFF,hexagonal,"{""system"": ""hexagonal"", ""scale"": [1.0, 1.0, 1.6], ""optical"": {""transparent"": 1, ""refraction"": 1.5, ""birefringence"": 0.01}}"
Bergenite,Ca2Ba4(UO2)9O6(PO4)6·16H2O,"{""Ca"": 2.0, ""Ba"": 4.0, ""U"": 9.0, ""O"": 64.0, ""P"": 6.0, ""H"": 32.0}",4013.83,#FFFFFF,monoclinic,"{""system"": ""monoclinic"", ""scale"": [0.7, 1.0, 1.3], ""optical"": {""transparent"": 1, ""refraction"": 1.5, ""birefringence"": 0.01}}"
Bergslagite,CaBe(AsO4)(OH),"{""Ca"": 1.0, ""Be"": 1.0, ""As"": 1.0, ""O"": 5.0, ""H"": 1.0}",205.02,#FFFFFF,monoclinic,"{""system"": ""monoclinic"", ""scale"": [0.7, 1.0, 1.3], ""optical"": {""transparent"": 1, ""refraction"": 1.5, ""birefringence"": 0.01}}"
Berlinite,Al(PO4),"{""Al"": 1.0, ""P"": 1.0, ""O"": 4.0}",121.95,#FFFFFF,hexagonal,"{""system"": ""hexagonal"", ""scale"": [1.0, 1.0, 1.6], ""optical"": {""transparent"": 1, ""refraction"": 1.5, ""birefringence"": 0.01}}"
Bernalite,Fe(OH)3,"{""Fe"": 1.0, ""O"": 3.0, ""H"": 3.0}",106.87,#8B4513,orthorhombic,"{""system"": ""orthorhombic"", ""scale"": [0.8, 1.0, 1.2], ""optical"": {""transparent"": 0, ""refraction"": 0.0, ""birefringence"": 0.0}}"
Bernardevansite,Al2(Se4+O3)3·6H2O,"{""Al"": 2.0, ""Se"": 3.0, ""O"": 15.0, ""H"": 12.0}",542.94,#FFFFFF,monoclinic,"{""system"": ""monoclinic"", ""scale"": [0.7, 1.0, 1.3], ""optical"": {""transparent"": 1, ""refraction"": 1.5, ""birefringence"": 0.01}}"