name,formula,elements,density,color,crystal_system,dna
Palladosilicide,Pd2Si,"{""Pd"": 2.0, ""Si"": 1.0}",240.93,#FFFFFF,hexagonal,"{""system"": ""hexagonal"", ""scale"": [1.0, 1.0, 1.6], ""optical"": {""transparent"": 1, ""refraction"": 1.5, ""birefringence"": 0.01}}"
Palladothallite,Pd3Tl,"{""Pd"": 3.0, ""Tl"": 1.0}",523.64,#FFFFFF,tetragonal,"{""system"": ""tetragonal"", ""scale"": [1.0, 1.0, 1.4], ""optical"": {""transparent"": 1, ""refraction"": 1.5, ""birefringence"": 0.01}}"
Palladseite,Pd17Se15,"{""Pd"": 17.0, ""Se"": 15.0}",2993.54,#FFFFFF,cubic,"{""system"": ""cubic"", ""scale"": [1.0, 1.0, 1.0], ""optical"": {""transparent"": 1, ""refraction"": 1.5, ""birefringence"": 0.0}}"
Palmierite,K2Pb(SO4)2,"{""K"": 2.0, ""Pb"": 1.0, ""S"": 2.0, ""O"": 8.0}",477.52,#FFFFFF,hexagonal,"{""system"": ""hexagonal"", ""scale"": [1.0, 1.0, 1.6], ""optical"": {""transparent"": 1, ""refraction"": 1.5, ""birefringence"": 0.01}}"
Pampaloite,AuSbTe,"{""Au"": 1.0, ""Sb"": 1.0, ""Te"": 1.0}",446.33,#FFD700,monoclinic,"{""system"": ""monoclinic"", ""scale"": [0.7, 1.0, 1.3], ""optical"": {""transparent"": 0, ""refraction"": 0.0, ""birefringence"": 0.0}}"
Panasqueiraite,CaMg(PO4)(OH),"{""Ca"": 1.0, ""Mg"": 1.0, ""P"": 1.0, ""O"": 5.0, ""H"": 1.0}",176.37,#FFFFFF,monoclinic,"{""system"": ""monoclinic"", ""scale"": [0.7, 1.0, 1.3], ""optical"": {""transparent"": 1, ""refraction"": 1.5, ""birefringence"": 0.01}}"
Pandoraite-Ba,BaV4+5V5+2O16·3H2O,"{""Ba"": 1.0, ""V"": 7.0, ""O"": 19.0, ""H"": 6.0}",803.96,#FFFFFF,monoclinic,"{""system"": ""monoclinic"", ""scale"": [0.7, 1.0, 1.3], ""optical"": {""transparent"": 1, ""refraction"": 1.5, ""birefringence"": 0.01}}"
Pandoraite-Ca,CaV4+5V5+2O16·3H2O,"{""Ca"": 1.0, ""V"": 7.0, ""O"": 19.0, ""H"": 6.0}",706.71,#FFFFFF,monoclinic,"{""system"": ""monoclinic"", ""scale"": [0.7, 1.0, 1.3], ""optical"": {""transparent"": 1, ""refraction"": 1.5, ""birefringence"": 0.01}}"
Panskyite,Pd9Ag2Pb2S4,"{""Pd"": 9.0, ""Ag"": 2.0, ""Pb"": 2.0, ""S"": 4.0}",1716.16,#708090,tetragonal,"{""system"": ""tetragonal"", ""scale"": [1.0, 1.0, 1.4], ""optical"": {""transparent"": 0, ""refraction"": 0.0, ""birefringence"": 0.0}}"
Pansnerite,K3Na3Fe3+6(AsO4)8,"{""K"": 3.0, ""Na"": 3.0, ""Fe"": 6.0, ""As"": 8.0, ""O"": 32.0}",1632.73,#556B2F,orthorhombic,"{""system"": ""orthorhombic"", ""scale"": [0.8, 1.0, 1.2], ""optical"": {""transparent"": 0, ""refraction"": 0.0, ""birefringence"": 0.0}}"
Panunzite,K3Na(AlSiO4)4,"{""K"": 3.0, ""Na"": 1.0, ""Al"": 4.0, ""Si"": 4.0, ""O"": 16.0}",616.57,#FFFFFF,hexagonal,"{""system"": ""hexagonal"", ""scale"": [1.0, 1.0, 1.6], ""optical"": {""transparent"": 1, ""refraction"": 1.5, ""birefringence"": 0.01}}"
Papagoite,CaCuAlSi2O6(OH)3,"{""Ca"": 1.0, ""Cu"": 1.0, ""Al"": 1.0, ""Si"": 2.0, ""O"": 9.0, ""H"": 3.0}",333.81,#FFFFFF,monoclinic,"{""system"": ""monoclinic"", ""scale"": [0.7, 1.0, 1.3], ""optical"": {""transparent"": 1, ""refraction"": 1.5, ""birefringence"": 0.01}}"
Papikeite,NaFe2+2(Mg3Al2)(Si5Al3)O22(OH)2,"{""Na"": 1.0, ""Fe"": 2.0, ""Mg"": 3.0, ""Al"": 5.0, ""Si"": 5.0, ""O"": 24.0, ""H"": 2.0}",868.99,#556B2F,orthorhombic,"{""system"": ""orthorhombic"", ""scale"": [0.8, 1.0, 1.2], ""optical"": {""transparent"": 0, ""refraction"": 0.0, ""birefringence"": 0.0}}"
Para-alumohydrocalcite,CaAl2(CO3)2(OH)4·6H2O,"{""Ca"": 1.0, ""Al"": 2.0, ""C"": 2.0, ""O"": 16.0, ""H"": 16.0}",390.19,#FFFFFF,,"{""system"": """", ""scale"": [1.0, 1.0, 1.0], ""optical"": {""transparent"": 1, ""refraction"": 1.5, ""birefringence"": 0.01}}"
Paraberzeliite,NaCaCaMg2(AsO4)3,"{""Na"": 1.0, ""Ca"": 2.0, ""Mg"": 2.0, ""As"": 3.0, ""O"": 12.0}",568.53,#FFFFFF,monoclinic,"{""system"": ""monoclinic"", ""scale"": [0.7, 1.0, 1.3], ""optical"": {""transparent"": 1, ""refraction"": 1.5, ""birefringence"": 0.01}}"
Parabutlerite,Fe3+(SO4)(OH)·2H2O,"{""Fe"": 1.0, ""S"": 1.0, ""O"": 7.0, ""H"": 5.0}",204.95,#556B2F,orthorhombic,"{""system"": ""orthorhombic"", ""scale"": [0.8, 1.0, 1.2], ""optical"": {""transparent"": 0, ""refraction"": 0.0, ""birefringence"": 0.0}}"
Paracelsian,Ba(Al2Si2O8),"{""Ba"": 1.0, ""Al"": 2.0, ""Si"": 2.0, ""O"": 8.0}",375.47,#FFFFFF,orthorhombic,"{""system"": ""orthorhombic"", ""scale"": [0.8, 1.0, 1.2], ""optical"": {""transparent"": 1, ""refraction"": 1.5, ""birefringence"": 0.01}}"
Paracoquimbite,Fe3+4(SO4)6(H2O)12·6H2O,"{""Fe"": 4.0, ""S"": 6.0, ""O"": 42.0, ""H"": 36.0}",1124.05,#556B2F,hexagonal,"{""system"": ""hexagonal"", ""scale"": [1.0, 1.0, 1.6], ""optical"": {""transparent"": 0, ""refraction"": 0.0, ""birefringence"": 0.0}}"
Paracostibite,CoSbS,"{""Co"": 1.0, ""Sb"": 1.0, ""S"": 1.0}",212.75,#A9A9A9,orthorhombic,"{""system"": ""orthorhombic"", ""scale"": [0.8, 1.0, 1.2], ""optical"": {""transparent"": 0, ""refraction"": 0.0, ""birefringence"": 0.0}}"
Paradimorphite,As4S3,"{""As"": 4.0, ""S"": 3.0}",395.86,#FFD700,orthorhombic,"{""system"": ""orthorhombic"", ""scale"": [0.8, 1.0, 1.2], ""optical"": {""transparent"": 0, ""refraction"": 0.0, ""birefringence"": 0.0}}"
Paraershovite,Na3K3Fe3+2(Si4O10OH)2(OH)2(H2O)4,"{""Na"": 3.0, ""K"": 3.0, ""Fe"": 2.0, ""Si"": 8.0, ""O"": 28.0, ""H"": 12.0}",982.79,#556B2F,triclinic,"{""system"": ""triclinic"", ""scale"": [0.7, 1.0, 1.3], ""optical"": {""transparent"": 0, ""refraction"": 0.0, ""birefringence"": 0.0}}"
Parafransoletite,Ca3Be2(PO4)2(PO3OH)2·4H2O,"{""Ca"": 3.0, ""Be"": 2.0, ""P"": 4.0, ""O"": 20.0, ""H"": 10.0}",592.22,#FFFFFF,triclinic,"{""system"": ""triclinic"", ""scale"": [0.7, 1.0, 1.3], ""optical"": {""transparent"": 1, ""refraction"": 1.5, ""birefringence"": 0.01}}"
Parageorgbokiite,Cu5O2(SeO3)2Cl2,"{""Cu"": 5.0, ""O"": 8.0, ""Se"": 2.0, ""Cl"": 2.0}",674.57,#FFFFFF,monoclinic,"{""system"": ""monoclinic"", ""scale"": [0.7, 1.0, 1.3], ""optical"": {""transparent"": 1, ""refraction"": 1.5, ""birefringence"": 0.01}}"
Paragersdorffite,NiAsS,"{""Ni"": 1.0, ""As"": 1.0, ""S"": 1.0}",165.67,#FFD700,cubic,"{""system"": ""cubic"", ""scale"": [1.0, 1.0, 1.0], ""optical"": {""transparent"": 0, ""refraction"": 0.0, ""birefringence"": 0.0}}"
Paragonite,NaAl2(Si3Al)O10(OH)2,"{""Na"": 1.0, ""Al"": 3.0, ""Si"": 3.0, ""O"": 12.0, ""H"": 2.0}",382.22,#FFFFFF,monoclinic,"{""system"": ""monoclinic"", ""scale"": [0.7, 1.0, 1.3], ""optical"": {""transparent"": 1, ""refraction"": 1.5, ""birefringence"": 0.01}}"
Paraguanajuatite,Bi2Se3,"{""Bi"": 2.0, ""Se"": 3.0}",654.84,#D2B48C,hexagonal,"{""system"": ""hexagonal"", ""scale"": [1.0, 1.0, 1.6], ""optical"": {""transparent"": 0, ""refraction"": 0.0, ""birefringence"": 0.0}}"
Parahibbingite,Fe2+2(OH)3Cl,"{""Fe"": 2.0, ""O"": 3.0, ""H"": 3.0, ""Cl"": 1.0}",198.17,#556B2F,hexagonal,"{""system"": ""hexagonal"", ""scale"": [1.0, 1.0, 1.6], ""optical"": {""transparent"": 0, ""refraction"": 0.0, ""birefringence"": 0.0}}"
Parakeldyshite,Na2ZrSi2O7,"{""Na"": 2.0, ""Zr"": 1.0, ""Si"": 2.0, ""O"": 7.0}",305.38,#FFFFFF,triclinic,"{""system"": ""triclinic"", ""scale"": [0.7, 1.0, 1.3], ""optical"": {""transparent"": 1, ""refraction"": 1.5, ""birefringence"": 0.01}}"
Paralammerite,Cu3(AsO4)2,"{""Cu"": 3.0, ""As"": 2.0, ""O"": 8.0}",468.49,#00BFFF,monoclinic,"{""system"": ""monoclinic"", ""scale"": [0.7, 1.0, 1.3], ""optical"": {""transparent"": 0, ""refraction"": 0.0, ""birefringence"": 0.0}}"
Paralaurionite,PbCl(OH),"{""Pb"": 1.0, ""Cl"": 1.0, ""O"": 1.0, ""H"": 1.0}",259.66,#FFFFFF,monoclinic,"{""system"": ""monoclinic"", ""scale"": [0.7, 1.0, 1.3], ""optical"": {""transparent"": 1, ""refraction"": 1.5, ""birefringence"": 0.01}}"
Paralstonite,BaCa(CO3)2,"{""Ba"": 1.0, ""Ca"": 1.0, ""C"": 2.0, ""O"": 6.0}",297.43,#FFFFFF,hexagonal,"{""system"": ""hexagonal"", ""scale"": [1.0, 1.0, 1.6], ""optical"": {""transparent"": 1, ""refraction"": 1.5, ""birefringence"": 0.01}}"
Paramarkeyite,Ca2(UO2)(CO3)3·5H2O,"{""Ca"": 2.0, ""U"": 1.0, ""O"": 16.0, ""C"": 3.0, ""H"": 10.0}",620.3,#FFFFFF,monoclinic,"{""system"": ""monoclinic"", ""scale"": [0.7, 1.0, 1.3], ""optical"": {""transparent"": 1, ""refraction"": 1.5, ""birefringence"": 0.01}}"
Paramelaconite,Cu1+2Cu2+2O3,"{""Cu"": 4.0, ""O"": 3.0}",302.2,#00BFFF,tetragonal,"{""system"": ""tetragonal"", ""scale"": [1.0, 1.0, 1.4], ""optical"": {""transparent"": 0, ""refraction"": 0.0, ""birefringence"": 0.0}}"
Paramendozavilite,NaAl4Fe7(PO4)5(PMo12O40)(OH)16·56H2O,"{""Na"": 1.0, ""Al"": 4.0, ""Fe"": 7.0, ""P"": 6.0, ""O"": 132.0, ""Mo"": 12.0, ""H"": 128.0}",4100.1,#556B2F,,"{""system"": """", ""scale"": [1.0, 1.0, 1.0], ""optical"": {""transparent"": 0, ""refraction"": 0.0, ""birefringence"": 0.0}}"
Paramolybdomenite,PbSeO3,"{""Pb"": 1.0, ""Se"": 1.0, ""O"": 3.0}",334.16,#FFFFFF,monoclinic,"{""system"": ""monoclinic"", ""scale"": [0.7, 1.0, 1.3], ""optical"": {""transparent"": 1, ""refraction"": 1.5, ""birefringence"": 0.01}}"
Paramontroseite,VO2,"{""V"": 1.0, ""O"": 2.0}",82.94,#FFFFFF,orthorhombic,"{""system"": ""orthorhombic"", ""scale"": [0.8, 1.0, 1.2], ""optical"": {""transparent"": 1, ""refraction"": 1.5, ""birefringence"": 0.01}}"
Paranatisite,Na2TiO(SiO4),"{""Na"": 2.0, ""Ti"": 1.0, ""O"": 5.0, ""Si"": 1.0}",201.94,#FFFFFF,orthorhombic,"{""system"": ""orthorhombic"", ""scale"": [0.8, 1.0, 1.2], ""optical"": {""transparent"": 1, ""refraction"": 1.5, ""birefringence"": 0.01}}"
Paranatrolite,Na2(Si3Al2)O10·3H2O,"{""Na"": 2.0, ""Si"": 3.0, ""Al"": 2.0, ""O"": 13.0, ""H"": 6.0}",398.26,#FFFFFF,monoclinic,"{""system"": ""monoclinic"", ""scale"": [0.7, 1.0, 1.3], ""optical"": {""transparent"": 1, ""refraction"": 1.5, ""birefringence"": 0.01}}"
Parapierrotite,TlSb5S8,"{""Tl"": 1.0, ""Sb"": 5.0, ""S"": 8.0}",1069.66,#A9A9A9,monoclinic,"{""system"": ""monoclinic"", ""scale"": [0.7, 1.0, 1.3], ""optical"": {""transparent"": 0, ""refraction"": 0.0, ""birefringence"": 0.0}}"
Pararaisaite,CuMg[Te6+O4(OH)2]·6H2O,"{""Cu"": 1.0, ""Mg"": 1.0, ""Te"": 1.0, ""O"": 12.0, ""H"": 14.0}",421.57,#FFFFFF,monoclinic,"{""system"": ""monoclinic"", ""scale"": [0.7, 1.0, 1.3], ""optical"": {""transparent"": 1, ""refraction"": 1.5, ""birefringence"": 0.01}}"
Pararammelsbergite,NiAs2,"{""Ni"": 1.0, ""As"": 2.0}",208.53,#7FFF00,orthorhombic,"{""system"": ""orthorhombic"", ""scale"": [0.8, 1.0, 1.2], ""optical"": {""transparent"": 0, ""refraction"": 0.0, ""birefringence"": 0.0}}"
Pararealgar,As4S4,"{""As"": 4.0, ""S"": 4.0}",427.92,#FFD700,monoclinic,"{""system"": ""monoclinic"", ""scale"": [0.7, 1.0, 1.3], ""optical"": {""transparent"": 0, ""refraction"": 0.0, ""birefringence"": 0.0}}"
Pararsenolamprite,As,"{""As"": 1.0}",74.92,#808080,orthorhombic,"{""system"": ""orthorhombic"", ""scale"": [0.8, 1.0, 1.2], ""optical"": {""transparent"": 0, ""refraction"": 0.0, ""birefringence"": 0.0}}"
Parascandolaite,KMgF3,"{""K"": 1.0, ""Mg"": 1.0, ""F"": 3.0}",120.41,#FFFFFF,cubic,"{""system"": ""cubic"", ""scale"": [1.0, 1.0, 1.0], ""optical"": {""transparent"": 1, ""refraction"": 1.5, ""birefringence"": 0.0}}"
Paraschachnerite,Ag3Hg2,"{""Ag"": 3.0, ""Hg"": 2.0}",724.79,#C0C0C0,orthorhombic,"{""system"": ""orthorhombic"", ""scale"": [0.8, 1.0, 1.2], ""optical"": {""transparent"": 0, ""refraction"": 0.0, ""birefringence"": 0.0}}"
Parascorodite,Fe3+(AsO4)·2H2O,"{""Fe"": 1.0, ""As"": 1.0, ""O"": 6.0, ""H"": 4.0}",230.8,#556B2F,hexagonal,"{""system"": ""hexagonal"", ""scale"": [1.0, 1.0, 1.6], ""optical"": {""transparent"": 0, ""refraction"": 0.0, ""birefringence"": 0.0}}"
Parasibirskite,Ca2B2O5·H2O,"{""Ca"": 2.0, ""B"": 2.0, ""O"": 6.0, ""H"": 2.0}",199.8,#FFFFFF,monoclinic,"{""system"": ""monoclinic"", ""scale"": [0.7, 1.0, 1.3], ""optical"": {""transparent"": 1, ""refraction"": 1.5, ""birefringence"": 0.01}}"
Parasymplesite,Fe2+3(AsO4)2·8H2O,"{""Fe"": 3.0, ""As"": 2.0, ""O"": 16.0, ""H"": 16.0}",589.52,#556B2F,monoclinic,"{""system"": ""monoclinic"", ""scale"": [0.7, 1.0, 1.3], ""optical"": {""transparent"": 0, ""refraction"": 0.0, ""birefringence"": 0.0}}"
Paratellurite,TeO2,"{""Te"": 1.0, ""O"": 2.0}",159.6,#FFFFFF,tetragonal,"{""system"": ""tetragonal"", ""scale"": [1.0, 1.0, 1.4], ""optical"": {""transparent"": 1, ""refraction"": 1.5, ""birefringence"": 0.01}}"
Paratimroseite,Pb2Cu4(TeO6)2(H2O)2,"{""Pb"": 2.0, ""Cu"": 4.0, ""Te"": 2.0, ""O"": 14.0, ""H"": 4.0}",1151.83,#FFFFFF,orthorhombic,"{""system"": ""orthorhombic"", ""scale"": [0.8, 1.0, 1.2], ""optical"": {""transparent"": 1, ""refraction"": 1.5, ""birefringence"": 0.01}}"
Paraumbite,K3Zr2H(Si3O9)2·3H2O,"{""K"": 3.0, ""Zr"": 2.0, ""H"": 7.0, ""Si"": 6.0, ""O"": 21.0}",811.34,#FFFFFF,orthorhombic,"{""system"": ""orthorhombic"", ""scale"": [0.8, 1.0, 1.2], ""optical"": {""transparent"": 1, ""refraction"": 1.5, ""birefringence"": 0.01}}"
Parauranophane,Ca(UO2)2(SiO3OH)2·5H2O,"{""Ca"": 1.0, ""U"": 2.0, ""O"": 17.0, ""Si"": 2.0, ""H"": 12.0}",856.42,#FFFFFF,monoclinic,"{""system"": ""monoclinic"", ""scale"": [0.7, 1.0, 1.3], ""optical"": {""transparent"": 1, ""refraction"": 1.5, ""birefringence"": 0.01}}"
Paravauxite,Fe2+Al2(PO4)2(OH)2·8H2O,"{""Fe"": 1.0, ""Al"": 2.0, ""P"": 2.0, ""O"": 18.0, ""H"": 18.0}",477.89,#556B2F,triclinic,"{""system"": ""triclinic"", ""scale"": [0.7, 1.0, 1.3], ""optical"": {""transparent"": 0, ""refraction"": 0.0, ""birefringence"": 0.0}}"
Parawulffite,K5Na3Cu8O4(SO4)8,"{""K"": 5.0, ""Na"": 3.0, ""Cu"": 8.0, ""O"": 36.0, ""S"": 8.0}",1605.35,#FFFFFF,monoclinic,"{""system"": ""monoclinic"", ""scale"": [0.7, 1.0, 1.3], ""optical"": {""transparent"": 1, ""refraction"": 1.5, ""birefringence"": 0.01}}"
Pargasite,NaCa2(Mg4Al)(Si6Al2)O22(OH)2,"{""Na"": 1.0, ""Ca"": 2.0, ""Mg"": 4.0, ""Al"": 3.0, ""Si"": 6.0, ""O"": 24.0, ""H"": 2.0}",835.89,#FFFFFF,monoclinic,"{""system"": ""monoclinic"", ""scale"": [0.7, 1.0, 1.3], ""optical"": {""transparent"": 1, ""refraction"": 1.5, ""birefringence"": 0.01}}"
Parisite-(Ce),CaCe2(CO3)3F2,"{""Ca"": 1.0, ""Ce"": 2.0, ""C"": 3.0, ""O"": 9.0, ""F"": 2.0}",538.35,#FFFFFF,monoclinic,"{""system"": ""monoclinic"", ""scale"": [0.7, 1.0, 1.3], ""optical"": {""transparent"": 1, ""refraction"": 1.5, ""birefringence"": 0.01}}"
Parisite-(La),CaLa2(CO3)3F2,"{""Ca"": 1.0, ""La"": 2.0, ""C"": 3.0, ""O"": 9.0, ""F"": 2.0}",535.93,#FFFFFF,monoclinic,"{""system"": ""monoclinic"", ""scale"": [0.7, 1.0, 1.3], ""optical"": {""transparent"": 1, ""refraction"": 1.5, ""birefringence"": 0.01}}"
Parisite-(Nd),CaNd2(CO3)3F2,"{""Ca"": 1.0, ""Nd"": 2.0, ""C"": 3.0, ""O"": 9.0, ""F"": 2.0}",546.59,#FFFFFF,monoclinic,"{""system"": ""monoclinic"", ""scale"": [0.7, 1.0, 1.3], ""optical"": {""transparent"": 1, ""refraction"": 1.5, ""birefringence"": 0.01}}"
Parkinsonite,Pb7MoO9Cl2,"{""Pb"": 7.0, ""Mo"": 1.0, ""O"": 9.0, ""Cl"": 2.0}",1761.25,#FFFFFF,tetragonal,"{""system"": ""tetragonal"", ""scale"": [1.0, 1.0, 1.4], ""optical"": {""transparent"": 1, ""refraction"": 1.5, ""birefringence"": 0.01}}"
Parnauite,Cu9(AsO4)2(SO4)(OH)10·7H2O,"{""Cu"": 9.0, ""As"": 2.0, ""O"": 29.0, ""S"": 1.0, ""H"": 24.0}",1242.04,#FFFFFF,monoclinic,"{""system"": ""monoclinic"", ""scale"": [0.7, 1.0, 1.3], ""optical"": {""transparent"": 1, ""refraction"": 1.5, ""birefringence"": 0.01}}"
Parsonsite,Pb2(UO2)(PO4)2,"{""Pb"": 2.0, ""U"": 1.0, ""O"": 10.0, ""P"": 2.0}",874.37,#FFFFFF,triclinic,"{""system"": ""triclinic"", ""scale"": [0.7, 1.0, 1.3], ""optical"": {""transparent"": 1, ""refraction"": 1.5, ""birefringence"": 0.01}}"
Partheite,Ca2(Si4Al4)O15(OH)2·4H2O,"{""Ca"": 2.0, ""Si"": 4.0, ""Al"": 4.0, ""O"": 21.0, ""H"": 10.0}",646.52,#FFFFFF,monoclinic,"{""system"": ""monoclinic"", ""scale"": [0.7, 1.0, 1.3], ""optical"": {""transparent"": 1, ""refraction"": 1.5, ""birefringence"": 0.01}}"
Parwanite,NaMg4Al8(PO4)8(CO3)(OH)7·30H2O,"{""Na"": 1.0, ""Mg"": 4.0, ""Al"": 8.0, ""P"": 8.0, ""O"": 72.0, ""C"": 1.0, ""H"": 67.0}",1815.38,#FFFFFF,monoclinic,"{""system"": ""monoclinic"", ""scale"": [0.7, 1.0, 1.3], ""optical"": {""transparent"": 1, ""refraction"": 1.5, ""birefringence"": 0.01}}"
Pasavaite,Pd3Pb2Te2,"{""Pd"": 3.0, ""Pb"": 2.0, ""Te"": 2.0}",988.86,#FFFFFF,orthorhombic,"{""system"": ""orthorhombic"", ""scale"": [0.8, 1.0, 1.2], ""optical"": {""transparent"": 1, ""refraction"": 1.5, ""birefringence"": 0.01}}"
Pascoite,Ca3V5+10O28·17H2O,"{""Ca"": 3.0, ""V"": 10.0, ""O"": 45.0, ""H"": 34.0}",1383.91,#FFFFFF,monoclinic,"{""system"": ""monoclinic"", ""scale"": [0.7, 1.0, 1.3], ""optical"": {""transparent"": 1, ""refraction"": 1.5, ""birefringence"": 0.01}}"
Patronite,VS4,"{""V"": 1.0, ""S"": 4.0}",179.18,#A9A9A9,monoclinic,"{""system"": ""monoclinic"", ""scale"": [0.7, 1.0, 1.3], ""optical"": {""transparent"": 0, ""refraction"": 0.0, ""birefringence"": 0.0}}"
Pattersonite,PbFe3(PO4)2(OH)5·H2O,"{""Pb"": 1.0, ""Fe"": 3.0, ""P"": 2.0, ""O"": 14.0, ""H"": 7.0}",667.75,#556B2F,triclinic,"{""system"": ""triclinic"", ""scale"": [0.7, 1.0, 1.3], ""optical"": {""transparent"": 0, ""refraction"": 0.0, ""birefringence"": 0.0}}"
Patynite,NaKCa4[Si9O23],"{""Na"": 1.0, ""K"": 1.0, ""Ca"": 4.0, ""Si"": 9.0, ""O"": 23.0}",843.22,#FFFFFF,triclinic,"{""system"": ""triclinic"", ""scale"": [0.7, 1.0, 1.3], ""optical"": {""transparent"": 1, ""refraction"": 1.5, ""birefringence"": 0.01}}"
Pauflerite,VO(SO4),"{""V"": 1.0, ""O"": 5.0, ""S"": 1.0}",163.0,#FFFF00,orthorhombic,"{""system"": ""orthorhombic"", ""scale"": [0.8, 1.0, 1.2], ""optical"": {""transparent"": 0, ""refraction"": 0.0, ""birefringence"": 0.0}}"
Pauladamsite,Cu4(SeO3)(SO4)(OH)4·2H2O,"{""Cu"": 4.0, ""Se"": 1.0, ""O"": 13.0, ""S"": 1.0, ""H"": 8.0}",581.28,#FFFFFF,triclinic,"{""system"": ""triclinic"", ""scale"": [0.7, 1.0, 1.3], ""optical"": {""transparent"": 1, ""refraction"": 1.5, ""birefringence"": 0.01}}"
Paulgrothite,Cu9Fe3+O4(PO4)4Cl,"{""Cu"": 9.0, ""Fe"": 1.0, ""O"": 20.0, ""P"": 4.0, ""Cl"": 1.0}",1107.13,#556B2F,orthorhombic,"{""system"": ""orthorhombic"", ""scale"": [0.8, 1.0, 1.2], ""optical"": {""transparent"": 0, ""refraction"": 0.0, ""birefringence"": 0.0}}"
Paulkellerite,Bi3+2Fe3+O2(PO4)(OH)2,"{""Bi"": 2.0, ""Fe"": 1.0, ""O"": 8.0, ""P"": 1.0, ""H"": 2.0}",634.8,#556B2F,monoclinic,"{""system"": ""monoclinic"", ""scale"": [0.7, 1.0, 1.3], ""optical"": {""transparent"": 0, ""refraction"": 0.0, ""birefringence"": 0.0}}"
Paulkerrite,[(H2O)K]Mg2(Fe3+2Ti)(PO4)4(OF)(H2O)10·4H2O,"{""H"": 30.0, ""O"": 32.0, ""K"": 1.0, ""Mg"": 2.0, ""Fe"": 2.0, ""Ti"": 1.0, ""P"": 4.0, ""F"": 1.0}",932.41,#556B2F,orthorhombic,"{""system"": ""orthorhombic"", ""scale"": [0.8, 1.0, 1.2], ""optical"": {""transparent"": 0, ""refraction"": 0.0, ""birefringence"": 0.0}}"
Paulmooreite,Pb2As3+2O5,"{""Pb"": 2.0, ""As"": 2.0, ""O"": 5.0}",644.24,#808080,monoclinic,"{""system"": ""monoclinic"", ""scale"": [0.7, 1.0, 1.3], ""optical"": {""transparent"": 0, ""refraction"": 0.0, ""birefringence"": 0.0}}"
Pauloabibite,NaNbO3,"{""Na"": 1.0, ""Nb"": 1.0, ""O"": 3.0}",163.9,#FFFFFF,hexagonal,"{""system"": ""hexagonal"", ""scale"": [1.0, 1.0, 1.6], ""optical"": {""transparent"": 1, ""refraction"": 1.5, ""birefringence"": 0.01}}"
Paulrobinsonite,Ti8Fe4O2,"{""Ti"": 8.0, ""Fe"": 4.0, ""O"": 2.0}",638.36,#8B4513,cubic,"{""system"": ""cubic"", ""scale"": [1.0, 1.0, 1.0], ""optical"": {""transparent"": 0, ""refraction"": 0.0, ""birefringence"": 0.0}}"
Paulscherrerite,(UO2)(OH)2,"{""U"": 1.0, ""O"": 4.0, ""H"": 2.0}",304.05,#ADFF2F,orthorhombic,"{""system"": ""orthorhombic"", ""scale"": [0.8, 1.0, 1.2], ""optical"": {""transparent"": 0, ""refraction"": 0.0, ""birefringence"": 0.0}}"
Pautovite,CsFe2S3,"{""Cs"": 1.0, ""Fe"": 2.0, ""S"": 3.0}",340.79,#DAA520,orthorhombic,"{""system"": ""orthorhombic"", ""scale"": [0.8, 1.0, 1.2], ""optical"": {""transparent"": 0, ""refraction"": 0.0, ""birefringence"": 0.0}}"
Pavlovskyite,Ca8(SiO4)2(Si3O10),"{""Ca"": 8.0, ""Si"": 5.0, ""O"": 18.0}",749.09,#FFFFFF,orthorhombic,"{""system"": ""orthorhombic"", ""scale"": [0.8, 1.0, 1.2], ""optical"": {""transparent"": 1, ""refraction"": 1.5, ""birefringence"": 0.01}}"
Pavonite,AgBi3S5,"{""Ag"": 1.0, ""Bi"": 3.0, ""S"": 5.0}",895.11,#A9A9A9,monoclinic,"{""system"": ""monoclinic"", ""scale"": [0.7, 1.0, 1.3], ""optical"": {""transparent"": 0, ""refraction"": 0.0, ""birefringence"": 0.0}}"