name,formula,elements,density,color,crystal_system,dna
Chenguodaite,Ag9FeTe2S4,"{""Ag"": 9.0, ""Fe"": 1.0, ""Te"": 2.0, ""S"": 4.0}",1410.12,#DAA520,orthorhombic,"{""system"": ""orthorhombic"", ""scale"": [0.8, 1.0, 1.2], ""optical"": {""transparent"": 0, ""refraction"": 0.0, ""birefringence"": 0.0}}"
Chenite,CuPb4(SO4)2(OH)6,"{""Cu"": 1.0, ""Pb"": 4.0, ""S"": 2.0, ""O"": 14.0, ""H"": 6.0}",1186.52,#FFFFFF,triclinic,"{""system"": ""triclinic"", ""scale"": [0.7, 1.0, 1.3], ""optical"": {""transparent"": 1, ""refraction"": 1.5, ""birefringence"": 0.01}}"
Chenmingite,FeCr2O4,"{""Fe"": 1.0, ""Cr"": 2.0, ""O"": 4.0}",223.85,#228B22,orthorhombic,"{""system"": ""orthorhombic"", ""scale"": [0.8, 1.0, 1.2], ""optical"": {""transparent"": 0, ""refraction"": 0.0, ""birefringence"": 0.0}}"
Chenowethite,Mg(H2O)6[(UO2)2(SO4)2(OH)2]·5H2O,"{""Mg"": 1.0, ""H"": 24.0, ""O"": 25.0, ""U"": 2.0, ""S"": 2.0}",988.68,#FFFFFF,orthorhombic,"{""system"": ""orthorhombic"", ""scale"": [0.8, 1.0, 1.2], ""optical"": {""transparent"": 1, ""refraction"": 1.5, ""birefringence"": 0.01}}"
Cheralite,CaTh(PO4)2,"{""Ca"": 1.0, ""Th"": 1.0, ""P"": 2.0, ""O"": 8.0}",462.06,#FFFFFF,monoclinic,"{""system"": ""monoclinic"", ""scale"": [0.7, 1.0, 1.3], ""optical"": {""transparent"": 1, ""refraction"": 1.5, ""birefringence"": 0.01}}"
Cherepanovite,RhAs,"{""Rh"": 1.0, ""As"": 1.0}",177.83,#808080,orthorhombic,"{""system"": ""orthorhombic"", ""scale"": [0.8, 1.0, 1.2], ""optical"": {""transparent"": 0, ""refraction"": 0.0, ""birefringence"": 0.0}}"
Chernikovite,(H3O)(UO2)(PO4)·3H2O,"{""H"": 9.0, ""O"": 10.0, ""U"": 1.0, ""P"": 1.0}",438.07,#FFFFFF,tetragonal,"{""system"": ""tetragonal"", ""scale"": [1.0, 1.0, 1.4], ""optical"": {""transparent"": 1, ""refraction"": 1.5, ""birefringence"": 0.01}}"
Chernovite-(Y),Y(AsO4),"{""Y"": 1.0, ""As"": 1.0, ""O"": 4.0}",227.83,#808080,tetragonal,"{""system"": ""tetragonal"", ""scale"": [1.0, 1.0, 1.4], ""optical"": {""transparent"": 0, ""refraction"": 0.0, ""birefringence"": 0.0}}"
Chernykhite,BaV2(Si2Al2)O10(OH)2,"{""Ba"": 1.0, ""V"": 2.0, ""Si"": 2.0, ""Al"": 2.0, ""O"": 12.0, ""H"": 2.0}",543.37,#FFFFFF,monoclinic,"{""system"": ""monoclinic"", ""scale"": [0.7, 1.0, 1.3], ""optical"": {""transparent"": 1, ""refraction"": 1.5, ""birefringence"": 0.01}}"
Chervetite,Pb2V5+2O7,"{""Pb"": 2.0, ""V"": 2.0, ""O"": 7.0}",628.28,#FFFFFF,monoclinic,"{""system"": ""monoclinic"", ""scale"": [0.7, 1.0, 1.3], ""optical"": {""transparent"": 1, ""refraction"": 1.5, ""birefringence"": 0.01}}"
Chesnokovite,Na2SiO2(OH)2·8H2O,"{""Na"": 2.0, ""Si"": 1.0, ""O"": 12.0, ""H"": 18.0}",284.21,#FFFFFF,orthorhombic,"{""system"": ""orthorhombic"", ""scale"": [0.8, 1.0, 1.2], ""optical"": {""transparent"": 1, ""refraction"": 1.5, ""birefringence"": 0.01}}"
Chessexite,Na4Ca2Mg3Al8(SiO4)2(SO4)10(OH)10·40H2O,"{""Na"": 4.0, ""Ca"": 2.0, ""Mg"": 3.0, ""Al"": 8.0, ""Si"": 2.0, ""O"": 98.0, ""S"": 10.0, ""H"": 90.0}",2496.39,#FFFFFF,orthorhombic,"{""system"": ""orthorhombic"", ""scale"": [0.8, 1.0, 1.2], ""optical"": {""transparent"": 1, ""refraction"": 1.5, ""birefringence"": 0.01}}"
Chesterite,Mg17Si20O54(OH)6,"{""Mg"": 17.0, ""Si"": 20.0, ""O"": 60.0, ""H"": 6.0}",1941.12,#FFFFFF,orthorhombic,"{""system"": ""orthorhombic"", ""scale"": [0.8, 1.0, 1.2], ""optical"": {""transparent"": 1, ""refraction"": 1.5, ""birefringence"": 0.01}}"
Chihmingite,NiAl2O4,"{""Ni"": 1.0, ""Al"": 2.0, ""O"": 4.0}",176.65,#7FFF00,cubic,"{""system"": ""cubic"", ""scale"": [1.0, 1.0, 1.0], ""optical"": {""transparent"": 0, ""refraction"": 0.0, ""birefringence"": 0.0}}"
Chihuahuaite,FeAl12O19,"{""Fe"": 1.0, ""Al"": 12.0, ""O"": 19.0}",683.61,#8B4513,hexagonal,"{""system"": ""hexagonal"", ""scale"": [1.0, 1.0, 1.6], ""optical"": {""transparent"": 0, ""refraction"": 0.0, ""birefringence"": 0.0}}"
Childrenite,Fe2+Al(PO4)(OH)2·H2O,"{""Fe"": 1.0, ""Al"": 1.0, ""P"": 1.0, ""O"": 7.0, ""H"": 4.0}",229.83,#556B2F,orthorhombic,"{""system"": ""orthorhombic"", ""scale"": [0.8, 1.0, 1.2], ""optical"": {""transparent"": 0, ""refraction"": 0.0, ""birefringence"": 0.0}}"
Chinchorroite,Na2Mg5(As2O7)2(AsO3OH)2(H2O)10,"{""Na"": 2.0, ""Mg"": 5.0, ""As"": 6.0, ""O"": 32.0, ""H"": 22.0}",1151.23,#FFFFFF,triclinic,"{""system"": ""triclinic"", ""scale"": [0.7, 1.0, 1.3], ""optical"": {""transparent"": 1, ""refraction"": 1.5, ""birefringence"": 0.01}}"
Chinleite-(Ce),NaCe(SO4)2(H2O),"{""Na"": 1.0, ""Ce"": 1.0, ""S"": 2.0, ""O"": 9.0, ""H"": 2.0}",373.25,#FFFFFF,hexagonal,"{""system"": ""hexagonal"", ""scale"": [1.0, 1.0, 1.6], ""optical"": {""transparent"": 1, ""refraction"": 1.5, ""birefringence"": 0.01}}"
Chinleite-(Nd),NaNd(SO4)2·H2O,"{""Na"": 1.0, ""Nd"": 1.0, ""S"": 2.0, ""O"": 9.0, ""H"": 2.0}",377.37,#FFFFFF,hexagonal,"{""system"": ""hexagonal"", ""scale"": [1.0, 1.0, 1.6], ""optical"": {""transparent"": 1, ""refraction"": 1.5, ""birefringence"": 0.01}}"
Chinleite-(Y),NaY(SO4)2·H2O,"{""Na"": 1.0, ""Y"": 1.0, ""S"": 2.0, ""O"": 9.0, ""H"": 2.0}",322.04,#FFFFFF,hexagonal,"{""system"": ""hexagonal"", ""scale"": [1.0, 1.0, 1.6], ""optical"": {""transparent"": 1, ""refraction"": 1.5, ""birefringence"": 0.01}}"
Chinnerite,[Mg(H2O)6]Na(H2O)2Al3(PO4)2F6,"{""Mg"": 1.0, ""H"": 16.0, ""O"": 16.0, ""Na"": 1.0, ""Al"": 3.0, ""P"": 2.0, ""F"": 6.0}",576.31,#FFFFFF,monoclinic,"{""system"": ""monoclinic"", ""scale"": [0.7, 1.0, 1.3], ""optical"": {""transparent"": 1, ""refraction"": 1.5, ""birefringence"": 0.01}}"
Chiolite,Na5Al3F14,"{""Na"": 5.0, ""Al"": 3.0, ""F"": 14.0}",461.89,#FFFFFF,tetragonal,"{""system"": ""tetragonal"", ""scale"": [1.0, 1.0, 1.4], ""optical"": {""transparent"": 1, ""refraction"": 1.5, ""birefringence"": 0.01}}"
Chiyokoite,Ca3Si(CO3)[B(OH)4]O(OH)5·12H2O,"{""Ca"": 3.0, ""Si"": 1.0, ""C"": 1.0, ""O"": 25.0, ""B"": 1.0, ""H"": 33.0}",604.41,#FFFFFF,hexagonal,"{""system"": ""hexagonal"", ""scale"": [1.0, 1.0, 1.6], ""optical"": {""transparent"": 1, ""refraction"": 1.5, ""birefringence"": 0.01}}"
Chkalovite,Na2BeSi2O6,"{""Na"": 2.0, ""Be"": 1.0, ""Si"": 2.0, ""O"": 6.0}",207.17,#FFFFFF,orthorhombic,"{""system"": ""orthorhombic"", ""scale"": [0.8, 1.0, 1.2], ""optical"": {""transparent"": 1, ""refraction"": 1.5, ""birefringence"": 0.01}}"
Chladniite,Na3CaMg11(PO4)9,"{""Na"": 3.0, ""Ca"": 1.0, ""Mg"": 11.0, ""P"": 9.0, ""O"": 36.0}",1231.19,#FFFFFF,hexagonal,"{""system"": ""hexagonal"", ""scale"": [1.0, 1.0, 1.6], ""optical"": {""transparent"": 1, ""refraction"": 1.5, ""birefringence"": 0.01}}"
Chloraluminite,AlCl3·6H2O,"{""Al"": 1.0, ""Cl"": 3.0, ""H"": 12.0, ""O"": 6.0}",241.43,#FFFFFF,hexagonal,"{""system"": ""hexagonal"", ""scale"": [1.0, 1.0, 1.6], ""optical"": {""transparent"": 1, ""refraction"": 1.5, ""birefringence"": 0.01}}"
Chlorapatite,Ca5(PO4)3Cl,"{""Ca"": 5.0, ""P"": 3.0, ""O"": 12.0, ""Cl"": 1.0}",520.76,#FFFFFF,hexagonal,"{""system"": ""hexagonal"", ""scale"": [1.0, 1.0, 1.6], ""optical"": {""transparent"": 1, ""refraction"": 1.5, ""birefringence"": 0.01}}"
Chlorargyrite,AgCl,"{""Ag"": 1.0, ""Cl"": 1.0}",143.32,#C0C0C0,cubic,"{""system"": ""cubic"", ""scale"": [1.0, 1.0, 1.0], ""optical"": {""transparent"": 0, ""refraction"": 0.0, ""birefringence"": 0.0}}"
Chlorbartonite,K6Fe24S26Cl,"{""K"": 6.0, ""Fe"": 24.0, ""S"": 26.0, ""Cl"": 1.0}",2444.01,#DAA520,tetragonal,"{""system"": ""tetragonal"", ""scale"": [1.0, 1.0, 1.4], ""optical"": {""transparent"": 0, ""refraction"": 0.0, ""birefringence"": 0.0}}"
Chloritoid,Fe2+Al2O(SiO4)(OH)2,"{""Fe"": 1.0, ""Al"": 2.0, ""O"": 7.0, ""Si"": 1.0, ""H"": 2.0}",251.92,#556B2F,triclinic,"{""system"": ""triclinic"", ""scale"": [0.7, 1.0, 1.3], ""optical"": {""transparent"": 0, ""refraction"": 0.0, ""birefringence"": 0.0}}"
Chlorkyuygenite,Ca12Al14O32[(H2O)4Cl2],"{""Ca"": 12.0, ""Al"": 14.0, ""O"": 36.0, ""H"": 8.0, ""Cl"": 2.0}",1513.64,#FFFFFF,cubic,"{""system"": ""cubic"", ""scale"": [1.0, 1.0, 1.0], ""optical"": {""transparent"": 1, ""refraction"": 1.5, ""birefringence"": 0.0}}"
Chlormagaluminite,Mg4Al2(OH)12Cl2(H2O)2,"{""Mg"": 4.0, ""Al"": 2.0, ""O"": 14.0, ""H"": 16.0, ""Cl"": 2.0}",462.23,#FFFFFF,hexagonal,"{""system"": ""hexagonal"", ""scale"": [1.0, 1.0, 1.6], ""optical"": {""transparent"": 1, ""refraction"": 1.5, ""birefringence"": 0.01}}"
Chlorocalcite,KCaCl3,"{""K"": 1.0, ""Ca"": 1.0, ""Cl"": 3.0}",185.53,#FFFFFF,,"{""system"": """", ""scale"": [1.0, 1.0, 1.0], ""optical"": {""transparent"": 1, ""refraction"": 1.5, ""birefringence"": 0.01}}"
Chloromagnesite,MgCl2,"{""Mg"": 1.0, ""Cl"": 2.0}",95.21,#FFFFFF,hexagonal,"{""system"": ""hexagonal"", ""scale"": [1.0, 1.0, 1.6], ""optical"": {""transparent"": 1, ""refraction"": 1.5, ""birefringence"": 0.01}}"
Chloromenite,Cu9O2(Se4+O3)4Cl6,"{""Cu"": 9.0, ""O"": 14.0, ""Se"": 4.0, ""Cl"": 6.0}",1324.49,#FFFFFF,monoclinic,"{""system"": ""monoclinic"", ""scale"": [0.7, 1.0, 1.3], ""optical"": {""transparent"": 1, ""refraction"": 1.5, ""birefringence"": 0.01}}"
Chlorothionite,K2Cu(SO4)Cl2,"{""K"": 2.0, ""Cu"": 1.0, ""S"": 1.0, ""O"": 4.0, ""Cl"": 2.0}",308.71,#FFFFFF,orthorhombic,"{""system"": ""orthorhombic"", ""scale"": [0.8, 1.0, 1.2], ""optical"": {""transparent"": 1, ""refraction"": 1.5, ""birefringence"": 0.01}}"
Chloroxiphite,Pb3CuO2Cl2(OH)2,"{""Pb"": 3.0, ""Cu"": 1.0, ""O"": 4.0, ""Cl"": 2.0, ""H"": 2.0}",822.07,#FFFFFF,monoclinic,"{""system"": ""monoclinic"", ""scale"": [0.7, 1.0, 1.3], ""optical"": {""transparent"": 1, ""refraction"": 1.5, ""birefringence"": 0.01}}"
Chondrodite,Mg5(SiO4)2F2,"{""Mg"": 5.0, ""Si"": 2.0, ""O"": 8.0, ""F"": 2.0}",343.73,#FFFFFF,monoclinic,"{""system"": ""monoclinic"", ""scale"": [0.7, 1.0, 1.3], ""optical"": {""transparent"": 1, ""refraction"": 1.5, ""birefringence"": 0.01}}"
Chongite,Ca3Mg2(AsO4)2(AsO3OH)2·4H2O,"{""Ca"": 3.0, ""Mg"": 2.0, ""As"": 4.0, ""O"": 20.0, ""H"": 10.0}",798.62,#FFFFFF,monoclinic,"{""system"": ""monoclinic"", ""scale"": [0.7, 1.0, 1.3], ""optical"": {""transparent"": 1, ""refraction"": 1.5, ""birefringence"": 0.01}}"
Chopinite,Mg3(PO4)2,"{""Mg"": 3.0, ""P"": 2.0, ""O"": 8.0}",262.87,#FFFFFF,monoclinic,"{""system"": ""monoclinic"", ""scale"": [0.7, 1.0, 1.3], ""optical"": {""transparent"": 1, ""refraction"": 1.5, ""birefringence"": 0.01}}"
Chrisstanleyite,Ag2Pd3Se4,"{""Ag"": 2.0, ""Pd"": 3.0, ""Se"": 4.0}",850.84,#C0C0C0,monoclinic,"{""system"": ""monoclinic"", ""scale"": [0.7, 1.0, 1.3], ""optical"": {""transparent"": 0, ""refraction"": 0.0, ""birefringence"": 0.0}}"
Christite,TlHgAsS3,"{""Tl"": 1.0, ""Hg"": 1.0, ""As"": 1.0, ""S"": 3.0}",576.07,#FFD700,monoclinic,"{""system"": ""monoclinic"", ""scale"": [0.7, 1.0, 1.3], ""optical"": {""transparent"": 0, ""refraction"": 0.0, ""birefringence"": 0.0}}"
Chromatite,CaCr6+O4,"{""Ca"": 1.0, ""Cr"": 1.0, ""O"": 4.0}",156.08,#228B22,tetragonal,"{""system"": ""tetragonal"", ""scale"": [1.0, 1.0, 1.4], ""optical"": {""transparent"": 0, ""refraction"": 0.0, ""birefringence"": 0.0}}"
Chrombismite,Bi16CrO27,"{""Bi"": 16.0, ""Cr"": 1.0, ""O"": 27.0}",3827.68,#228B22,tetragonal,"{""system"": ""tetragonal"", ""scale"": [1.0, 1.0, 1.4], ""optical"": {""transparent"": 0, ""refraction"": 0.0, ""birefringence"": 0.0}}"
Chromceladonite,KMgCr(Si4O10)(OH)2,"{""K"": 1.0, ""Mg"": 1.0, ""Cr"": 1.0, ""Si"": 4.0, ""O"": 12.0, ""H"": 2.0}",421.79,#FFFFFF,monoclinic,"{""system"": ""monoclinic"", ""scale"": [0.7, 1.0, 1.3], ""optical"": {""transparent"": 1, ""refraction"": 1.5, ""birefringence"": 0.01}}"
Chromio-pargasite,NaCa2(Mg4Cr)(Si6Al2)O22(OH)2,"{""Na"": 1.0, ""Ca"": 2.0, ""Mg"": 4.0, ""Cr"": 1.0, ""Si"": 6.0, ""Al"": 2.0, ""O"": 24.0, ""H"": 2.0}",860.91,#FFFFFF,monoclinic,"{""system"": ""monoclinic"", ""scale"": [0.7, 1.0, 1.3], ""optical"": {""transparent"": 1, ""refraction"": 1.5, ""birefringence"": 0.01}}"
Chromite,Fe2+Cr2O4,"{""Fe"": 1.0, ""Cr"": 2.0, ""O"": 4.0}",223.85,#228B22,cubic,"{""system"": ""cubic"", ""scale"": [1.0, 1.0, 1.0], ""optical"": {""transparent"": 0, ""refraction"": 0.0, ""birefringence"": 0.0}}"
Chromium,Cr,"{""Cr"": 1.0}",52.0,#228B22,hexagonal,"{""system"": ""hexagonal"", ""scale"": [1.0, 1.0, 1.6], ""optical"": {""transparent"": 0, ""refraction"": 0.0, ""birefringence"": 0.0}}"
Chromium-dravite,NaMg3Cr6(Si6O18)(BO3)3(OH)3(OH),"{""Na"": 1.0, ""Mg"": 3.0, ""Cr"": 6.0, ""Si"": 6.0, ""O"": 31.0, ""B"": 3.0, ""H"": 4.0}",1108.92,#FFFFFF,hexagonal,"{""system"": ""hexagonal"", ""scale"": [1.0, 1.0, 1.6], ""optical"": {""transparent"": 1, ""refraction"": 1.5, ""birefringence"": 0.01}}"
Chromo-alumino-povondraite,NaCr3(Al4Mg2)(Si6O18)(BO3)3(OH)3O,"{""Na"": 1.0, ""Cr"": 3.0, ""Al"": 4.0, ""Mg"": 2.0, ""Si"": 6.0, ""O"": 31.0, ""B"": 3.0, ""H"": 3.0}",1035.52,#FFFFFF,hexagonal,"{""system"": ""hexagonal"", ""scale"": [1.0, 1.0, 1.6], ""optical"": {""transparent"": 1, ""refraction"": 1.5, ""birefringence"": 0.01}}"
Chromphyllite,KCr2(AlSi3O10)(OH)2,"{""K"": 1.0, ""Cr"": 2.0, ""Al"": 1.0, ""Si"": 3.0, ""O"": 12.0, ""H"": 2.0}",448.37,#FFFFFF,monoclinic,"{""system"": ""monoclinic"", ""scale"": [0.7, 1.0, 1.3], ""optical"": {""transparent"": 1, ""refraction"": 1.5, ""birefringence"": 0.01}}"
Chromschieffelinite,Pb10Te6+6O20(OH)14(CrO4)(H2O)5,"{""Pb"": 10.0, ""Te"": 6.0, ""O"": 43.0, ""H"": 24.0, ""Cr"": 1.0}",3601.79,#FFFFFF,orthorhombic,"{""system"": ""orthorhombic"", ""scale"": [0.8, 1.0, 1.2], ""optical"": {""transparent"": 1, ""refraction"": 1.5, ""birefringence"": 0.01}}"
Chromviskontite,Pb5Cu2(CrO4)3(SeO3)(OH)6,"{""Pb"": 5.0, ""Cu"": 2.0, ""Cr"": 3.0, ""O"": 21.0, ""Se"": 1.0, ""H"": 6.0}",1740.11,#FFFFFF,orthorhombic,"{""system"": ""orthorhombic"", ""scale"": [0.8, 1.0, 1.2], ""optical"": {""transparent"": 1, ""refraction"": 1.5, ""birefringence"": 0.01}}"
Chrysoberyl,BeAl2O4,"{""Be"": 1.0, ""Al"": 2.0, ""O"": 4.0}",126.97,#FFFFFF,orthorhombic,"{""system"": ""orthorhombic"", ""scale"": [0.8, 1.0, 1.2], ""optical"": {""transparent"": 1, ""refraction"": 1.5, ""birefringence"": 0.01}}"
Chrysothallite,K6Cu6Tl3+Cl17(OH)4·H2O,"{""K"": 6.0, ""Cu"": 6.0, ""Tl"": 1.0, ""Cl"": 17.0, ""O"": 5.0, ""H"": 6.0}",1508.98,#FFFFFF,tetragonal,"{""system"": ""tetragonal"", ""scale"": [1.0, 1.0, 1.4], ""optical"": {""transparent"": 1, ""refraction"": 1.5, ""birefringence"": 0.01}}"
Chrysotile,Mg3Si2O5(OH)4,"{""Mg"": 3.0, ""Si"": 2.0, ""O"": 9.0, ""H"": 4.0}",277.14,#FFFFFF,monoclinic,"{""system"": ""monoclinic"", ""scale"": [0.7, 1.0, 1.3], ""optical"": {""transparent"": 1, ""refraction"": 1.5, ""birefringence"": 0.01}}"
Chudobaite,Mg5(AsO4)2(AsO3OH)2·10H2O,"{""Mg"": 5.0, ""As"": 4.0, ""O"": 26.0, ""H"": 22.0}",859.41,#FFFFFF,triclinic,"{""system"": ""triclinic"", ""scale"": [0.7, 1.0, 1.3], ""optical"": {""transparent"": 1, ""refraction"": 1.5, ""birefringence"": 0.01}}"
Chukanovite,Fe2(CO3)(OH)2,"{""Fe"": 2.0, ""C"": 1.0, ""O"": 5.0, ""H"": 2.0}",205.73,#556B2F,monoclinic,"{""system"": ""monoclinic"", ""scale"": [0.7, 1.0, 1.3], ""optical"": {""transparent"": 0, ""refraction"": 0.0, ""birefringence"": 0.0}}"
Chukhrovite-(Ce),Ca3CeAl2(SO4)F13·12H2O,"{""Ca"": 3.0, ""Ce"": 1.0, ""Al"": 2.0, ""S"": 1.0, ""O"": 16.0, ""F"": 13.0, ""H"": 24.0}",873.57,#FFFFFF,cubic,"{""system"": ""cubic"", ""scale"": [1.0, 1.0, 1.0], ""optical"": {""transparent"": 1, ""refraction"": 1.5, ""birefringence"": 0.0}}"
Chukhrovite-(Nd),Ca3NdAl2(SO4)F13·12H2O,"{""Ca"": 3.0, ""Nd"": 1.0, ""Al"": 2.0, ""S"": 1.0, ""O"": 16.0, ""F"": 13.0, ""H"": 24.0}",877.69,#FFFFFF,cubic,"{""system"": ""cubic"", ""scale"": [1.0, 1.0, 1.0], ""optical"": {""transparent"": 1, ""refraction"": 1.5, ""birefringence"": 0.0}}"
Chukhrovite-(Y),Ca3YAl2(SO4)F13·12H2O,"{""Ca"": 3.0, ""Y"": 1.0, ""Al"": 2.0, ""S"": 1.0, ""O"": 16.0, ""F"": 13.0, ""H"": 24.0}",822.36,#FFFFFF,cubic,"{""system"": ""cubic"", ""scale"": [1.0, 1.0, 1.0], ""optical"": {""transparent"": 1, ""refraction"": 1.5, ""birefringence"": 0.0}}"
Chukotkaite,AgPb7Sb5S15,"{""Ag"": 1.0, ""Pb"": 7.0, ""Sb"": 5.0, ""S"": 15.0}",2647.97,#708090,,"{""system"": """", ""scale"": [1.0, 1.0, 1.0], ""optical"": {""transparent"": 0, ""refraction"": 0.0, ""birefringence"": 0.0}}"
Churchite-(Y),Y(PO4)·2H2O,"{""Y"": 1.0, ""P"": 1.0, ""O"": 6.0, ""H"": 4.0}",219.91,#FFFFFF,monoclinic,"{""system"": ""monoclinic"", ""scale"": [0.7, 1.0, 1.3], ""optical"": {""transparent"": 1, ""refraction"": 1.5, ""birefringence"": 0.01}}"
Chursinite,Hg1+Hg2+(AsO4),"{""Hg"": 2.0, ""As"": 1.0, ""O"": 4.0}",540.1,#808080,monoclinic,"{""system"": ""monoclinic"", ""scale"": [0.7, 1.0, 1.3], ""optical"": {""transparent"": 0, ""refraction"": 0.0, ""birefringence"": 0.0}}"
Cinnabar,HgS,"{""Hg"": 1.0, ""S"": 1.0}",232.65,#A9A9A9,hexagonal,"{""system"": ""hexagonal"", ""scale"": [1.0, 1.0, 1.6], ""optical"": {""transparent"": 0, ""refraction"": 0.0, ""birefringence"": 0.0}}"
Cirrolite,Ca3Al2(PO4)3(OH)3,"{""Ca"": 3.0, ""Al"": 2.0, ""P"": 3.0, ""O"": 15.0, ""H"": 3.0}",510.13,#FFFFFF,,"{""system"": """", ""scale"": [1.0, 1.0, 1.0], ""optical"": {""transparent"": 1, ""refraction"": 1.5, ""birefringence"": 0.01}}"
Clairite,(NH4)2Fe3+3(SO4)4(OH)3·3H2O,"{""N"": 2.0, ""H"": 17.0, ""Fe"": 3.0, ""S"": 4.0, ""O"": 22.0}",692.95,#556B2F,triclinic,"{""system"": ""triclinic"", ""scale"": [0.7, 1.0, 1.3], ""optical"": {""transparent"": 0, ""refraction"": 0.0, ""birefringence"": 0.0}}"
Claringbullite,Cu2+4FCl(OH)6,"{""Cu"": 4.0, ""F"": 1.0, ""Cl"": 1.0, ""O"": 6.0, ""H"": 6.0}",410.7,#FFFFFF,hexagonal,"{""system"": ""hexagonal"", ""scale"": [1.0, 1.0, 1.6], ""optical"": {""transparent"": 1, ""refraction"": 1.5, ""birefringence"": 0.01}}"
Claudetite,As2O3,"{""As"": 2.0, ""O"": 3.0}",197.84,#808080,monoclinic,"{""system"": ""monoclinic"", ""scale"": [0.7, 1.0, 1.3], ""optical"": {""transparent"": 0, ""refraction"": 0.0, ""birefringence"": 0.0}}"
Clausthalite,PbSe,"{""Pb"": 1.0, ""Se"": 1.0}",286.16,#FFFFFF,cubic,"{""system"": ""cubic"", ""scale"": [1.0, 1.0, 1.0], ""optical"": {""transparent"": 1, ""refraction"": 1.5, ""birefringence"": 0.0}}"
Clearcreekite,Hg1+3(CO3)(OH)·2H2O,"{""Hg"": 3.0, ""C"": 1.0, ""O"": 6.0, ""H"": 5.0}",714.82,#FFFFFF,monoclinic,"{""system"": ""monoclinic"", ""scale"": [0.7, 1.0, 1.3], ""optical"": {""transparent"": 1, ""refraction"": 1.5, ""birefringence"": 0.01}}"
Cliffordite,UTe4+3O9,"{""U"": 1.0, ""Te"": 3.0, ""O"": 9.0}",764.83,#ADFF2F,,"{""system"": """", ""scale"": [1.0, 1.0, 1.0], ""optical"": {""transparent"": 0, ""refraction"": 0.0, ""birefringence"": 0.0}}"
Clinoatacamite,Cu2Cl(OH)3,"{""Cu"": 2.0, ""Cl"": 1.0, ""O"": 3.0, ""H"": 3.0}",213.57,#FFFFFF,monoclinic,"{""system"": ""monoclinic"", ""scale"": [0.7, 1.0, 1.3], ""optical"": {""transparent"": 1, ""refraction"": 1.5, ""birefringence"": 0.01}}"
Clinobehoite,Be(OH)2,"{""Be"": 1.0, ""O"": 2.0, ""H"": 2.0}",43.03,#FFFFFF,monoclinic,"{""system"": ""monoclinic"", ""scale"": [0.7, 1.0, 1.3], ""optical"": {""transparent"": 1, ""refraction"": 1.5, ""birefringence"": 0.01}}"
Clinobisvanite,Bi(VO4),"{""Bi"": 1.0, ""V"": 1.0, ""O"": 4.0}",323.92,#D2B48C,monoclinic,"{""system"": ""monoclinic"", ""scale"": [0.7, 1.0, 1.3], ""optical"": {""transparent"": 0, ""refraction"": 0.0, ""birefringence"": 0.0}}"
Clinocervantite,Sb3+Sb5+O4,"{""Sb"": 2.0, ""O"": 4.0}",307.52,#A9A9A9,monoclinic,"{""system"": ""monoclinic"", ""scale"": [0.7, 1.0, 1.3], ""optical"": {""transparent"": 0, ""refraction"": 0.0, ""birefringence"": 0.0}}"
Clinochalcomenite,CuSe4+O3(H2O)2,"{""Cu"": 1.0, ""Se"": 1.0, ""O"": 5.0, ""H"": 4.0}",226.54,#FFFFFF,monoclinic,"{""system"": ""monoclinic"", ""scale"": [0.7, 1.0, 1.3], ""optical"": {""transparent"": 1, ""refraction"": 1.5, ""birefringence"": 0.01}}"
Clinochlore,Mg5Al(AlSi3O10)(OH)8,"{""Mg"": 5.0, ""Al"": 2.0, ""Si"": 3.0, ""O"": 18.0, ""H"": 8.0}",555.84,#FFFFFF,triclinic,"{""system"": ""triclinic"", ""scale"": [0.7, 1.0, 1.3], ""optical"": {""transparent"": 1, ""refraction"": 1.5, ""birefringence"": 0.01}}"
Clinoclase,Cu3(AsO4)(OH)3,"{""Cu"": 3.0, ""As"": 1.0, ""O"": 7.0, ""H"": 3.0}",380.59,#FFFFFF,monoclinic,"{""system"": ""monoclinic"", ""scale"": [0.7, 1.0, 1.3], ""optical"": {""transparent"": 1, ""refraction"": 1.5, ""birefringence"": 0.01}}"