name,formula,elements,density,color,crystal_system,dna
Hodrusite,Cu8Bi12S22,"{""Cu"": 8.0, ""Bi"": 12.0, ""S"": 22.0}",3721.48,#A9A9A9,monoclinic,"{""system"": ""monoclinic"", ""scale"": [0.7, 1.0, 1.3], ""optical"": {""transparent"": 0, ""refraction"": 0.0, ""birefringence"": 0.0}}"
Hoelite,C14H8O2,"{""C"": 14.0, ""H"": 8.0, ""O"": 2.0}",208.2,#FFFFFF,monoclinic,"{""system"": ""monoclinic"", ""scale"": [0.7, 1.0, 1.3], ""optical"": {""transparent"": 1, ""refraction"": 1.5, ""birefringence"": 0.01}}"
Hoganite,Cu(CH3COO)2·H2O,"{""Cu"": 1.0, ""C"": 4.0, ""H"": 8.0, ""O"": 5.0}",199.65,#FFFFFF,monoclinic,"{""system"": ""monoclinic"", ""scale"": [0.7, 1.0, 1.3], ""optical"": {""transparent"": 1, ""refraction"": 1.5, ""birefringence"": 0.01}}"
Hogtuvaite,Ca4[Fe2+6Fe3+6]O4[Si8Be2Al2O36],"{""Ca"": 4.0, ""Fe"": 12.0, ""O"": 40.0, ""Si"": 8.0, ""Be"": 2.0, ""Al"": 2.0}",1767.22,#556B2F,triclinic,"{""system"": ""triclinic"", ""scale"": [0.7, 1.0, 1.3], ""optical"": {""transparent"": 0, ""refraction"": 0.0, ""birefringence"": 0.0}}"
Hohmannite,Fe3+2O(SO4)2·8H2O,"{""Fe"": 2.0, ""O"": 17.0, ""S"": 2.0, ""H"": 16.0}",463.95,#556B2F,triclinic,"{""system"": ""triclinic"", ""scale"": [0.7, 1.0, 1.3], ""optical"": {""transparent"": 0, ""refraction"": 0.0, ""birefringence"": 0.0}}"
Hokkaidoite,C22H12,"{""C"": 22.0, ""H"": 12.0}",276.32,#FFFFFF,monoclinic,"{""system"": ""monoclinic"", ""scale"": [0.7, 1.0, 1.3], ""optical"": {""transparent"": 1, ""refraction"": 1.5, ""birefringence"": 0.01}}"
Hollingworthite,RhAsS,"{""Rh"": 1.0, ""As"": 1.0, ""S"": 1.0}",209.89,#FFD700,cubic,"{""system"": ""cubic"", ""scale"": [1.0, 1.0, 1.0], ""optical"": {""transparent"": 0, ""refraction"": 0.0, ""birefringence"": 0.0}}"
Hollisterite,Al3Fe,"{""Al"": 3.0, ""Fe"": 1.0}",136.79,#8B4513,monoclinic,"{""system"": ""monoclinic"", ""scale"": [0.7, 1.0, 1.3], ""optical"": {""transparent"": 0, ""refraction"": 0.0, ""birefringence"": 0.0}}"
Holtstamite,Ca3Al2(SiO4)2(OH)4,"{""Ca"": 3.0, ""Al"": 2.0, ""Si"": 2.0, ""O"": 12.0, ""H"": 4.0}",426.41,#FFFFFF,tetragonal,"{""system"": ""tetragonal"", ""scale"": [1.0, 1.0, 1.4], ""optical"": {""transparent"": 1, ""refraction"": 1.5, ""birefringence"": 0.01}}"
Holubite,Ag3Pb6(Sb8Bi3)S24,"{""Ag"": 3.0, ""Pb"": 6.0, ""Sb"": 8.0, ""Bi"": 3.0, ""S"": 24.0}",3937.27,#708090,monoclinic,"{""system"": ""monoclinic"", ""scale"": [0.7, 1.0, 1.3], ""optical"": {""transparent"": 0, ""refraction"": 0.0, ""birefringence"": 0.0}}"
Homilite,Ca2Fe2+B2Si2O10,"{""Ca"": 2.0, ""Fe"": 1.0, ""B"": 2.0, ""Si"": 2.0, ""O"": 10.0}",373.81,#556B2F,monoclinic,"{""system"": ""monoclinic"", ""scale"": [0.7, 1.0, 1.3], ""optical"": {""transparent"": 0, ""refraction"": 0.0, ""birefringence"": 0.0}}"
Honeaite,Au3TlTe2,"{""Au"": 3.0, ""Tl"": 1.0, ""Te"": 2.0}",1050.49,#FFD700,orthorhombic,"{""system"": ""orthorhombic"", ""scale"": [0.8, 1.0, 1.2], ""optical"": {""transparent"": 0, ""refraction"": 0.0, ""birefringence"": 0.0}}"
Hongshiite,PtCu,"{""Pt"": 1.0, ""Cu"": 1.0}",258.63,#00BFFF,hexagonal,"{""system"": ""hexagonal"", ""scale"": [1.0, 1.0, 1.6], ""optical"": {""transparent"": 0, ""refraction"": 0.0, ""birefringence"": 0.0}}"
Honzaite,Ni2[AsO3(OH)]2(H2O)5,"{""Ni"": 2.0, ""As"": 2.0, ""O"": 13.0, ""H"": 12.0}",487.32,#FFFFFF,monoclinic,"{""system"": ""monoclinic"", ""scale"": [0.7, 1.0, 1.3], ""optical"": {""transparent"": 1, ""refraction"": 1.5, ""birefringence"": 0.01}}"
Hoperanchite,(NH4)2(S2O3),"{""N"": 2.0, ""H"": 8.0, ""S"": 2.0, ""O"": 3.0}",148.2,#FFFFFF,monoclinic,"{""system"": ""monoclinic"", ""scale"": [0.7, 1.0, 1.3], ""optical"": {""transparent"": 1, ""refraction"": 1.5, ""birefringence"": 0.01}}"
Hopmannite,Ba2(Ti5Fe)O13,"{""Ba"": 2.0, ""Ti"": 5.0, ""Fe"": 1.0, ""O"": 13.0}",777.86,#556B2F,monoclinic,"{""system"": ""monoclinic"", ""scale"": [0.7, 1.0, 1.3], ""optical"": {""transparent"": 0, ""refraction"": 0.0, ""birefringence"": 0.0}}"
Hornesite,Mg3(AsO4)2·8H2O,"{""Mg"": 3.0, ""As"": 2.0, ""O"": 16.0, ""H"": 16.0}",494.9,#FFFFFF,monoclinic,"{""system"": ""monoclinic"", ""scale"": [0.7, 1.0, 1.3], ""optical"": {""transparent"": 1, ""refraction"": 1.5, ""birefringence"": 0.01}}"
Horomanite,Fe6Ni3S8,"{""Fe"": 6.0, ""Ni"": 3.0, ""S"": 8.0}",767.65,#DAA520,tetragonal,"{""system"": ""tetragonal"", ""scale"": [1.0, 1.0, 1.4], ""optical"": {""transparent"": 0, ""refraction"": 0.0, ""birefringence"": 0.0}}"
Horvathite-(Y),NaY(CO3)F2,"{""Na"": 1.0, ""Y"": 1.0, ""C"": 1.0, ""O"": 3.0, ""F"": 2.0}",209.91,#FFFFFF,orthorhombic,"{""system"": ""orthorhombic"", ""scale"": [0.8, 1.0, 1.2], ""optical"": {""transparent"": 1, ""refraction"": 1.5, ""birefringence"": 0.01}}"
Hoslite,Fe3+3(VO4)2(SO4)(OH)(H2O)4·3H2O,"{""Fe"": 3.0, ""V"": 2.0, ""O"": 20.0, ""S"": 1.0, ""H"": 15.0}",636.61,#556B2F,monoclinic,"{""system"": ""monoclinic"", ""scale"": [0.7, 1.0, 1.3], ""optical"": {""transparent"": 0, ""refraction"": 0.0, ""birefringence"": 0.0}}"
Hotsonite,Al5(SO4)(PO4)(OH)10·8H2O,"{""Al"": 5.0, ""S"": 1.0, ""O"": 26.0, ""P"": 1.0, ""H"": 26.0}",640.14,#FFFFFF,triclinic,"{""system"": ""triclinic"", ""scale"": [0.7, 1.0, 1.3], ""optical"": {""transparent"": 1, ""refraction"": 1.5, ""birefringence"": 0.01}}"
Housleyite,Pb6CuTe4O18(OH)2,"{""Pb"": 6.0, ""Cu"": 1.0, ""Te"": 4.0, ""O"": 20.0, ""H"": 2.0}",2139.17,#FFFFFF,monoclinic,"{""system"": ""monoclinic"", ""scale"": [0.7, 1.0, 1.3], ""optical"": {""transparent"": 1, ""refraction"": 1.5, ""birefringence"": 0.01}}"
Howardevansite,NaCu2+Fe3+2(VO4)3,"{""Na"": 1.0, ""Cu"": 1.0, ""Fe"": 2.0, ""V"": 3.0, ""O"": 12.0}",543.06,#556B2F,triclinic,"{""system"": ""triclinic"", ""scale"": [0.7, 1.0, 1.3], ""optical"": {""transparent"": 0, ""refraction"": 0.0, ""birefringence"": 0.0}}"
Howlite,Ca2SiB5O9(OH)5,"{""Ca"": 2.0, ""Si"": 1.0, ""B"": 5.0, ""O"": 14.0, ""H"": 5.0}",391.34,#FFFFFF,monoclinic,"{""system"": ""monoclinic"", ""scale"": [0.7, 1.0, 1.3], ""optical"": {""transparent"": 1, ""refraction"": 1.5, ""birefringence"": 0.01}}"
Hrabakite,Ni9PbSbS8,"{""Ni"": 9.0, ""Pb"": 1.0, ""Sb"": 1.0, ""S"": 8.0}",1113.65,#708090,tetragonal,"{""system"": ""tetragonal"", ""scale"": [1.0, 1.0, 1.4], ""optical"": {""transparent"": 0, ""refraction"": 0.0, ""birefringence"": 0.0}}"
Hsianghualite,Li2Ca3Be3(SiO4)3F2,"{""Li"": 2.0, ""Ca"": 3.0, ""Be"": 3.0, ""Si"": 3.0, ""O"": 12.0, ""F"": 2.0}",475.42,#FFFFFF,cubic,"{""system"": ""cubic"", ""scale"": [1.0, 1.0, 1.0], ""optical"": {""transparent"": 1, ""refraction"": 1.5, ""birefringence"": 0.0}}"
Huanghoite-(Ce),BaCe(CO3)2F,"{""Ba"": 1.0, ""Ce"": 1.0, ""C"": 2.0, ""O"": 6.0, ""F"": 1.0}",416.47,#FFFFFF,hexagonal,"{""system"": ""hexagonal"", ""scale"": [1.0, 1.0, 1.6], ""optical"": {""transparent"": 1, ""refraction"": 1.5, ""birefringence"": 0.01}}"
Huanghoite-(Nd),BaNd(CO3)2F,"{""Ba"": 1.0, ""Nd"": 1.0, ""C"": 2.0, ""O"": 6.0, ""F"": 1.0}",420.59,#FFFFFF,hexagonal,"{""system"": ""hexagonal"", ""scale"": [1.0, 1.0, 1.6], ""optical"": {""transparent"": 1, ""refraction"": 1.5, ""birefringence"": 0.01}}"
Huanzalaite,Mg(WO4),"{""Mg"": 1.0, ""W"": 1.0, ""O"": 4.0}",272.15,#FFFFFF,monoclinic,"{""system"": ""monoclinic"", ""scale"": [0.7, 1.0, 1.3], ""optical"": {""transparent"": 1, ""refraction"": 1.5, ""birefringence"": 0.01}}"
Hubbardite,Mg(H2O)6[(UO2)2O(OH)(SO4)]2·8H2O,"{""Mg"": 1.0, ""H"": 30.0, ""O"": 34.0, ""U"": 4.0, ""S"": 2.0}",1614.79,#FFFFFF,orthorhombic,"{""system"": ""orthorhombic"", ""scale"": [0.8, 1.0, 1.2], ""optical"": {""transparent"": 1, ""refraction"": 1.5, ""birefringence"": 0.01}}"
Huemulite,Na4MgV5+10O28·24H2O,"{""Na"": 4.0, ""Mg"": 1.0, ""V"": 10.0, ""O"": 52.0, ""H"": 48.0}",1506.05,#FFFFFF,triclinic,"{""system"": ""triclinic"", ""scale"": [0.7, 1.0, 1.3], ""optical"": {""transparent"": 1, ""refraction"": 1.5, ""birefringence"": 0.01}}"
Huenite,Cu4(MoO4)3(OH)2,"{""Cu"": 4.0, ""Mo"": 3.0, ""O"": 14.0, ""H"": 2.0}",768.07,#FFFFFF,hexagonal,"{""system"": ""hexagonal"", ""scale"": [1.0, 1.0, 1.6], ""optical"": {""transparent"": 1, ""refraction"": 1.5, ""birefringence"": 0.01}}"
Hugelite,Pb2(UO2)3(AsO4)2O2·5H2O,"{""Pb"": 2.0, ""U"": 3.0, ""O"": 21.0, ""As"": 2.0, ""H"": 10.0}",1624.41,#FFFFFF,monoclinic,"{""system"": ""monoclinic"", ""scale"": [0.7, 1.0, 1.3], ""optical"": {""transparent"": 1, ""refraction"": 1.5, ""birefringence"": 0.01}}"
Hughesite,Na3AlV10O28·22H2O,"{""Na"": 3.0, ""Al"": 1.0, ""V"": 10.0, ""O"": 50.0, ""H"": 44.0}",1449.7,#FFFFFF,triclinic,"{""system"": ""triclinic"", ""scale"": [0.7, 1.0, 1.3], ""optical"": {""transparent"": 1, ""refraction"": 1.5, ""birefringence"": 0.01}}"
Huizingite-(Al),(NH4)9Al3(SO4)8(OH)2·4H2O,"{""N"": 9.0, ""H"": 46.0, ""Al"": 3.0, ""S"": 8.0, ""O"": 38.0}",1117.88,#FFFFFF,triclinic,"{""system"": ""triclinic"", ""scale"": [0.7, 1.0, 1.3], ""optical"": {""transparent"": 1, ""refraction"": 1.5, ""birefringence"": 0.01}}"
Hulsite,Fe2+2Fe3+O2(BO3),"{""Fe"": 3.0, ""O"": 5.0, ""B"": 1.0}",258.36,#8B4513,monoclinic,"{""system"": ""monoclinic"", ""scale"": [0.7, 1.0, 1.3], ""optical"": {""transparent"": 0, ""refraction"": 0.0, ""birefringence"": 0.0}}"
Humberstonite,K3Na7Mg2(SO4)6(NO3)2·6H2O,"{""K"": 3.0, ""Na"": 7.0, ""Mg"": 2.0, ""S"": 6.0, ""O"": 36.0, ""N"": 2.0, ""H"": 12.0}",1135.33,#FFFFFF,hexagonal,"{""system"": ""hexagonal"", ""scale"": [1.0, 1.0, 1.6], ""optical"": {""transparent"": 1, ""refraction"": 1.5, ""birefringence"": 0.01}}"
Humboldtine,Fe2+(C2O4)·2H2O,"{""Fe"": 1.0, ""C"": 2.0, ""O"": 6.0, ""H"": 4.0}",179.9,#556B2F,monoclinic,"{""system"": ""monoclinic"", ""scale"": [0.7, 1.0, 1.3], ""optical"": {""transparent"": 0, ""refraction"": 0.0, ""birefringence"": 0.0}}"
Humite,Mg7(SiO4)3F2,"{""Mg"": 7.0, ""Si"": 3.0, ""O"": 12.0, ""F"": 2.0}",484.44,#FFFFFF,orthorhombic,"{""system"": ""orthorhombic"", ""scale"": [0.8, 1.0, 1.2], ""optical"": {""transparent"": 1, ""refraction"": 1.5, ""birefringence"": 0.01}}"
Hummerite,KMgV5+5O14·8H2O,"{""K"": 1.0, ""Mg"": 1.0, ""V"": 5.0, ""O"": 22.0, ""H"": 16.0}",686.24,#FFFFFF,triclinic,"{""system"": ""triclinic"", ""scale"": [0.7, 1.0, 1.3], ""optical"": {""transparent"": 1, ""refraction"": 1.5, ""birefringence"": 0.01}}"
Hunchunite,Au2Pb,"{""Au"": 2.0, ""Pb"": 1.0}",601.14,#FFD700,cubic,"{""system"": ""cubic"", ""scale"": [1.0, 1.0, 1.0], ""optical"": {""transparent"": 0, ""refraction"": 0.0, ""birefringence"": 0.0}}"
Hungchaoite,MgB4O5(OH)4·7H2O,"{""Mg"": 1.0, ""B"": 4.0, ""O"": 16.0, ""H"": 18.0}",341.69,#FFFFFF,triclinic,"{""system"": ""triclinic"", ""scale"": [0.7, 1.0, 1.3], ""optical"": {""transparent"": 1, ""refraction"": 1.5, ""birefringence"": 0.01}}"
Huntingdonite,Pb19Sb16As6S51Cl2,"{""Pb"": 19.0, ""Sb"": 16.0, ""As"": 6.0, ""S"": 51.0, ""Cl"": 2.0}",8040.44,#708090,triclinic,"{""system"": ""triclinic"", ""scale"": [0.7, 1.0, 1.3], ""optical"": {""transparent"": 0, ""refraction"": 0.0, ""birefringence"": 0.0}}"
Huntite,CaMg3(CO3)4,"{""Ca"": 1.0, ""Mg"": 3.0, ""C"": 4.0, ""O"": 12.0}",353.05,#FFFFFF,hexagonal,"{""system"": ""hexagonal"", ""scale"": [1.0, 1.0, 1.6], ""optical"": {""transparent"": 1, ""refraction"": 1.5, ""birefringence"": 0.01}}"
Hurlbutite,CaBe2(PO4)2,"{""Ca"": 1.0, ""Be"": 2.0, ""P"": 2.0, ""O"": 8.0}",248.04,#FFFFFF,monoclinic,"{""system"": ""monoclinic"", ""scale"": [0.7, 1.0, 1.3], ""optical"": {""transparent"": 1, ""refraction"": 1.5, ""birefringence"": 0.01}}"
Hutcheonite,Ca3Ti2(SiAl2)O12,"{""Ca"": 3.0, ""Ti"": 2.0, ""Si"": 1.0, ""Al"": 2.0, ""O"": 12.0}",490.03,#FFFFFF,cubic,"{""system"": ""cubic"", ""scale"": [1.0, 1.0, 1.0], ""optical"": {""transparent"": 1, ""refraction"": 1.5, ""birefringence"": 0.0}}"
Hutchinsonite,TlPbAs5S9,"{""Tl"": 1.0, ""Pb"": 1.0, ""As"": 5.0, ""S"": 9.0}",1074.72,#708090,orthorhombic,"{""system"": ""orthorhombic"", ""scale"": [0.8, 1.0, 1.2], ""optical"": {""transparent"": 0, ""refraction"": 0.0, ""birefringence"": 0.0}}"
Huttonite,Th(SiO4),"{""Th"": 1.0, ""Si"": 1.0, ""O"": 4.0}",324.13,#FFFFFF,monoclinic,"{""system"": ""monoclinic"", ""scale"": [0.7, 1.0, 1.3], ""optical"": {""transparent"": 1, ""refraction"": 1.5, ""birefringence"": 0.01}}"
Hyblerite,Pb2+4Bi3+2(SO4)2(CO3)O4,"{""Pb"": 4.0, ""Bi"": 2.0, ""S"": 2.0, ""O"": 15.0, ""C"": 1.0}",1562.89,#FFFFFF,orthorhombic,"{""system"": ""orthorhombic"", ""scale"": [0.8, 1.0, 1.2], ""optical"": {""transparent"": 1, ""refraction"": 1.5, ""birefringence"": 0.01}}"
Hydrobasaluminite,Al4(SO4)(OH)10·15H2O,"{""Al"": 4.0, ""S"": 1.0, ""O"": 29.0, ""H"": 40.0}",644.3,#FFFFFF,monoclinic,"{""system"": ""monoclinic"", ""scale"": [0.7, 1.0, 1.3], ""optical"": {""transparent"": 1, ""refraction"": 1.5, ""birefringence"": 0.01}}"
Hydroboracite,CaMg[B3O4(OH)3]2·3H2O,"{""Ca"": 1.0, ""Mg"": 1.0, ""B"": 6.0, ""O"": 17.0, ""H"": 12.0}",413.35,#FFFFFF,monoclinic,"{""system"": ""monoclinic"", ""scale"": [0.7, 1.0, 1.3], ""optical"": {""transparent"": 1, ""refraction"": 1.5, ""birefringence"": 0.01}}"
Hydrocerussite,Pb3(CO3)2(OH)2,"{""Pb"": 3.0, ""C"": 2.0, ""O"": 8.0, ""H"": 2.0}",775.64,#FFFFFF,hexagonal,"{""system"": ""hexagonal"", ""scale"": [1.0, 1.0, 1.6], ""optical"": {""transparent"": 1, ""refraction"": 1.5, ""birefringence"": 0.01}}"
Hydrochlorborite,Ca2B3O3(OH)4·BO(OH)3Cl·7H2O,"{""Ca"": 2.0, ""B"": 4.0, ""O"": 18.0, ""H"": 21.0, ""Cl"": 1.0}",468.02,#FFFFFF,monoclinic,"{""system"": ""monoclinic"", ""scale"": [0.7, 1.0, 1.3], ""optical"": {""transparent"": 1, ""refraction"": 1.5, ""birefringence"": 0.01}}"
Hydrodelhayelite,KCa2(Si7Al)O17(OH)2·6H2O,"{""K"": 1.0, ""Ca"": 2.0, ""Si"": 7.0, ""Al"": 1.0, ""O"": 25.0, ""H"": 14.0}",756.98,#FFFFFF,orthorhombic,"{""system"": ""orthorhombic"", ""scale"": [0.8, 1.0, 1.2], ""optical"": {""transparent"": 1, ""refraction"": 1.5, ""birefringence"": 0.01}}"
Hydrodresserite,BaAl2(CO3)2(OH)4·3H2O,"{""Ba"": 1.0, ""Al"": 2.0, ""C"": 2.0, ""O"": 13.0, ""H"": 10.0}",433.39,#FFFFFF,triclinic,"{""system"": ""triclinic"", ""scale"": [0.7, 1.0, 1.3], ""optical"": {""transparent"": 1, ""refraction"": 1.5, ""birefringence"": 0.01}}"
Hydroglauberite,Na10Ca3(SO4)8·6H2O,"{""Na"": 10.0, ""Ca"": 3.0, ""S"": 8.0, ""O"": 38.0, ""H"": 12.0}",1226.72,#FFFFFF,,"{""system"": """", ""scale"": [1.0, 1.0, 1.0], ""optical"": {""transparent"": 1, ""refraction"": 1.5, ""birefringence"": 0.01}}"
Hydrohalite,NaCl·2H2O,"{""Na"": 1.0, ""Cl"": 1.0, ""H"": 4.0, ""O"": 2.0}",94.47,#FFFFFF,monoclinic,"{""system"": ""monoclinic"", ""scale"": [0.7, 1.0, 1.3], ""optical"": {""transparent"": 1, ""refraction"": 1.5, ""birefringence"": 0.01}}"
Hydrohalloysite,Al2Si2O5(OH)4·2H2O,"{""Al"": 2.0, ""Si"": 2.0, ""O"": 11.0, ""H"": 8.0}",294.2,#FFFFFF,,"{""system"": """", ""scale"": [1.0, 1.0, 1.0], ""optical"": {""transparent"": 1, ""refraction"": 1.5, ""birefringence"": 0.01}}"
Hydromagnesite,Mg5(CO3)4(OH)2·4H2O,"{""Mg"": 5.0, ""C"": 4.0, ""O"": 18.0, ""H"": 10.0}",467.67,#FFFFFF,monoclinic,"{""system"": ""monoclinic"", ""scale"": [0.7, 1.0, 1.3], ""optical"": {""transparent"": 1, ""refraction"": 1.5, ""birefringence"": 0.01}}"
Hydroniumjarosite,(H3O)Fe3+3(SO4)2(OH)6,"{""H"": 9.0, ""O"": 15.0, ""Fe"": 3.0, ""S"": 2.0}",480.74,#556B2F,hexagonal,"{""system"": ""hexagonal"", ""scale"": [1.0, 1.0, 1.6], ""optical"": {""transparent"": 0, ""refraction"": 0.0, ""birefringence"": 0.0}}"
Hydroniumpharmacosiderite,(H3O)Fe3+4(AsO4)3(OH)4·4H2O,"{""H"": 15.0, ""O"": 21.0, ""Fe"": 4.0, ""As"": 3.0}",799.28,#556B2F,cubic,"{""system"": ""cubic"", ""scale"": [1.0, 1.0, 1.0], ""optical"": {""transparent"": 0, ""refraction"": 0.0, ""birefringence"": 0.0}}"
Hydronovacekite,Mg(UO2)2(AsO4)2·12H2O,"{""Mg"": 1.0, ""U"": 2.0, ""O"": 24.0, ""As"": 2.0, ""H"": 24.0}",1058.4,#FFFFFF,triclinic,"{""system"": ""triclinic"", ""scale"": [0.7, 1.0, 1.3], ""optical"": {""transparent"": 1, ""refraction"": 1.5, ""birefringence"": 0.01}}"
Hydropascoite,Ca3(V10O28)·24H2O,"{""Ca"": 3.0, ""V"": 10.0, ""O"": 52.0, ""H"": 48.0}",1510.02,#FFFFFF,triclinic,"{""system"": ""triclinic"", ""scale"": [0.7, 1.0, 1.3], ""optical"": {""transparent"": 1, ""refraction"": 1.5, ""birefringence"": 0.01}}"
Hydrotalcite,Mg6Al2(OH)16(CO3)(H2O)4,"{""Mg"": 6.0, ""Al"": 2.0, ""O"": 23.0, ""H"": 24.0, ""C"": 1.0}",604.02,#FFFFFF,hexagonal,"{""system"": ""hexagonal"", ""scale"": [1.0, 1.0, 1.6], ""optical"": {""transparent"": 1, ""refraction"": 1.5, ""birefringence"": 0.01}}"
Hydroterskite,Na2ZrSi6O12(OH)6,"{""Na"": 2.0, ""Zr"": 1.0, ""Si"": 6.0, ""O"": 18.0, ""H"": 6.0}",599.79,#FFFFFF,orthorhombic,"{""system"": ""orthorhombic"", ""scale"": [0.8, 1.0, 1.2], ""optical"": {""transparent"": 1, ""refraction"": 1.5, ""birefringence"": 0.01}}"
Hydrotungstite,WO2(OH)2·H2O,"{""W"": 1.0, ""O"": 5.0, ""H"": 4.0}",267.87,#FFFFFF,monoclinic,"{""system"": ""monoclinic"", ""scale"": [0.7, 1.0, 1.3], ""optical"": {""transparent"": 1, ""refraction"": 1.5, ""birefringence"": 0.01}}"
Hydroxylapatite,Ca5(PO4)3OH,"{""Ca"": 5.0, ""P"": 3.0, ""O"": 13.0, ""H"": 1.0}",502.32,#FFFFFF,hexagonal,"{""system"": ""hexagonal"", ""scale"": [1.0, 1.0, 1.6], ""optical"": {""transparent"": 1, ""refraction"": 1.5, ""birefringence"": 0.01}}"
Hydroxylbastnasite-(Ce),Ce(CO3)(OH),"{""Ce"": 1.0, ""C"": 1.0, ""O"": 4.0, ""H"": 1.0}",217.14,#FFFFFF,hexagonal,"{""system"": ""hexagonal"", ""scale"": [1.0, 1.0, 1.6], ""optical"": {""transparent"": 1, ""refraction"": 1.5, ""birefringence"": 0.01}}"
Hydroxylbastnasite-(La),La(CO3)(OH),"{""La"": 1.0, ""C"": 1.0, ""O"": 4.0, ""H"": 1.0}",215.93,#FFFFFF,hexagonal,"{""system"": ""hexagonal"", ""scale"": [1.0, 1.0, 1.6], ""optical"": {""transparent"": 1, ""refraction"": 1.5, ""birefringence"": 0.01}}"
Hydroxylbastnasite-(Nd),Nd(CO3)(OH),"{""Nd"": 1.0, ""C"": 1.0, ""O"": 4.0, ""H"": 1.0}",221.26,#FFFFFF,hexagonal,"{""system"": ""hexagonal"", ""scale"": [1.0, 1.0, 1.6], ""optical"": {""transparent"": 1, ""refraction"": 1.5, ""birefringence"": 0.01}}"
Hydroxylborite,Mg3(BO3)(OH)3,"{""Mg"": 3.0, ""B"": 1.0, ""O"": 6.0, ""H"": 3.0}",182.76,#FFFFFF,hexagonal,"{""system"": ""hexagonal"", ""scale"": [1.0, 1.0, 1.6], ""optical"": {""transparent"": 1, ""refraction"": 1.5, ""birefringence"": 0.01}}"
Hydroxylchondrodite,Mg5(SiO4)2(OH)2,"{""Mg"": 5.0, ""Si"": 2.0, ""O"": 10.0, ""H"": 2.0}",339.75,#FFFFFF,monoclinic,"{""system"": ""monoclinic"", ""scale"": [0.7, 1.0, 1.3], ""optical"": {""transparent"": 1, ""refraction"": 1.5, ""birefringence"": 0.01}}"
Hydroxylclinohumite,Mg9(SiO4)4(OH)2,"{""Mg"": 9.0, ""Si"": 4.0, ""O"": 18.0, ""H"": 2.0}",621.17,#FFFFFF,monoclinic,"{""system"": ""monoclinic"", ""scale"": [0.7, 1.0, 1.3], ""optical"": {""transparent"": 1, ""refraction"": 1.5, ""birefringence"": 0.01}}"
Hydroxyledgrewite,Ca9(SiO4)4(OH)2,"{""Ca"": 9.0, ""Si"": 4.0, ""O"": 18.0, ""H"": 2.0}",763.1,#FFFFFF,monoclinic,"{""system"": ""monoclinic"", ""scale"": [0.7, 1.0, 1.3], ""optical"": {""transparent"": 1, ""refraction"": 1.5, ""birefringence"": 0.01}}"
Hydroxylhedyphane,Ca2Pb3(AsO4)3(OH),"{""Ca"": 2.0, ""Pb"": 3.0, ""As"": 3.0, ""O"": 13.0, ""H"": 1.0}",1135.53,#FFFFFF,hexagonal,"{""system"": ""hexagonal"", ""scale"": [1.0, 1.0, 1.6], ""optical"": {""transparent"": 1, ""refraction"": 1.5, ""birefringence"": 0.01}}"
Hydroxylherderite,CaBe(PO4)(OH),"{""Ca"": 1.0, ""Be"": 1.0, ""P"": 1.0, ""O"": 5.0, ""H"": 1.0}",161.07,#FFFFFF,monoclinic,"{""system"": ""monoclinic"", ""scale"": [0.7, 1.0, 1.3], ""optical"": {""transparent"": 1, ""refraction"": 1.5, ""birefringence"": 0.01}}"
Hydroxylpyromorphite,Pb5(PO4)3(OH),"{""Pb"": 5.0, ""P"": 3.0, ""O"": 13.0, ""H"": 1.0}",1337.92,#FFFFFF,hexagonal,"{""system"": ""hexagonal"", ""scale"": [1.0, 1.0, 1.6], ""optical"": {""transparent"": 1, ""refraction"": 1.5, ""birefringence"": 0.01}}"
Hydroxylwagnerite,Mg2(PO4)(OH),"{""Mg"": 2.0, ""P"": 1.0, ""O"": 5.0, ""H"": 1.0}",160.6,#FFFFFF,monoclinic,"{""system"": ""monoclinic"", ""scale"": [0.7, 1.0, 1.3], ""optical"": {""transparent"": 1, ""refraction"": 1.5, ""birefringence"": 0.01}}"
Hydroxymcglassonite-(K),KSr4Si8O20(OH)·8H2O,"{""K"": 1.0, ""Sr"": 4.0, ""Si"": 8.0, ""O"": 29.0, ""H"": 17.0}",1095.44,#FFFFFF,tetragonal,"{""system"": ""tetragonal"", ""scale"": [1.0, 1.0, 1.4], ""optical"": {""transparent"": 1, ""refraction"": 1.5, ""birefringence"": 0.01}}"