name,formula,elements,density,color,crystal,pm_ids,gacha_weight
Penriceite,[Mg(H2O)6][Na(H2O)2Al3(PO4)2F6]·H2O,"{""Mg"": 1.0, ""H"": 18.0, ""O"": 17.0, ""Na"": 1.0, ""Al"": 3.0, ""P"": 2.0, ""F"": 6.0}",594.304,#FFFFFF,monoclinic,{47},1998.0
Pentagonite,CaV4+OSi4O10·4H2O,"{""Ca"": 1.0, ""V"": 1.0, ""O"": 15.0, ""Si"": 4.0, ""H"": 8.0}",451.409,#FFFFFF,orthorhombic,{16},83.0
Pentahydrite,Mg(SO4)·5H2O,"{""Mg"": 1.0, ""S"": 1.0, ""O"": 9.0, ""H"": 10.0}",210.436,#FFFFFF,triclinic,"{45,47,48,50,55}",3030.0
Pentahydroborite,CaB2O(OH)6·2H2O,"{""Ca"": 1.0, ""B"": 2.0, ""O"": 9.0, ""H"": 10.0}",215.769,#FFFFFF,triclinic,"{47,48,55}",2333.0
Perboeite-(Ce),(CaCe3)(Al3Fe2+)(Si2O7)(SiO4)3O(OH)2,"{""Ca"": 1.0, ""Ce"": 3.0, ""Al"": 3.0, ""Fe"": 1.0, ""Si"": 5.0, ""O"": 22.0, ""H"": 2.0}",1091.648,#556B2F,monoclinic,"{19,34}",707.0
Perboeite-(La),(CaLa3)(Al3Fe2+)[Si2O7][SiO4]3O(OH)2,"{""Ca"": 1.0, ""La"": 3.0, ""Al"": 3.0, ""Fe"": 1.0, ""Si"": 5.0, ""O"": 22.0, ""H"": 2.0}",1088.018,#556B2F,monoclinic,{34},564.0
Perchiazziite,Co2(CO3)(OH)2,"{""Co"": 2.0, ""C"": 1.0, ""O"": 5.0, ""H"": 2.0}",211.888,#FFFFFF,monoclinic,{},1.0
Percleveite-(Ce),Ce2Si2O7,"{""Ce"": 2.0, ""Si"": 2.0, ""O"": 7.0}",448.403,#FFFFFF,tetragonal,{37},135.0
Percleveite-(La),La2Si2O7,"{""La"": 2.0, ""Si"": 2.0, ""O"": 7.0}",445.983,#FFFFFF,tetragonal,{37},135.0
Peretaite,CaSb3+4O4(SO4)2(OH)2·2H2O,"{""Ca"": 1.0, ""Sb"": 4.0, ""O"": 16.0, ""S"": 2.0, ""H"": 6.0}",853.27,#FFFFFF,monoclinic,{47},1998.0
Periclase,MgO,"{""Mg"": 1.0, ""O"": 1.0}",40.304,#FFFFFF,cubic,"{31,36,38,45,49,50,51,54}",1891.0
Perite,PbBiO2Cl,"{""Pb"": 1.0, ""Bi"": 1.0, ""O"": 2.0, ""Cl"": 1.0}",483.628,#FFFFFF,orthorhombic,"{32,47}",2410.0
Perlialite,K9NaCa(Si24Al12)O72·15H2O,"{""K"": 9.0, ""Na"": 1.0, ""Ca"": 1.0, ""Si"": 24.0, ""Al"": 12.0, ""O"": 87.0, ""H"": 30.0}",2834.927,#FFFFFF,hexagonal,"{35,47}",2724.0
Permingeatite,Cu3SbSe4,"{""Cu"": 3.0, ""Sb"": 1.0, ""Se"": 4.0}",628.282,#00BFFF,tetragonal,{12},129.0
Perovskite,CaTiO3,"{""Ca"": 1.0, ""Ti"": 1.0, ""O"": 3.0}",135.942,#FFFFFF,cubic,"{3,4,5,7,31,35,36,41,50,54}",2208.0
Perrierite-(Ce),Ce4MgFe3+2Ti2O8(Si2O7)2,"{""Ce"": 4.0, ""Mg"": 1.0, ""Fe"": 2.0, ""Ti"": 2.0, ""O"": 22.0, ""Si"": 4.0}",1256.527,#556B2F,monoclinic,"{9,34,35}",1417.0
Pertoldite,GeO2,"{""Ge"": 1.0, ""O"": 2.0}",104.628,#FFFFFF,hexagonal,{54},234.0
Pertsevite-(F),Mg2(BO3)F,"{""Mg"": 2.0, ""B"": 1.0, ""O"": 3.0, ""F"": 1.0}",126.415,#FFFFFF,orthorhombic,"{23,35}",1124.0
Pertsevite-(OH),Mg2(BO3)(OH),"{""Mg"": 2.0, ""B"": 1.0, ""O"": 4.0, ""H"": 1.0}",124.424,#FFFFFF,orthorhombic,"{23,35}",1124.0
Petalite,LiAlSi4O10,"{""Li"": 1.0, ""Al"": 1.0, ""Si"": 4.0, ""O"": 10.0}",306.252,#FFFFFF,monoclinic,{34},564.0
Peterbaylissite,Hg3(CO3)(OH)·2H2O,"{""Hg"": 3.0, ""C"": 1.0, ""O"": 6.0, ""H"": 5.0}",714.815,#FFFFFF,orthorhombic,{47},1998.0
Petermegawite,Al6(Se4+O3)3[SiO3(OH)](OH)9·10H2O,"{""Al"": 6.0, ""Se"": 3.0, ""O"": 32.0, ""Si"": 1.0, ""H"": 30.0}",969.098,#FFFFFF,orthorhombic,{47},1998.0
Petersenite-(Ce),Na4Ce2(CO3)5,"{""Na"": 4.0, ""Ce"": 2.0, ""C"": 5.0, ""O"": 15.0}",672.24,#FFFFFF,monoclinic,{35},726.0
Petersite-(Ce),Cu6Ce(PO4)3(OH)6·3H2O,"{""Cu"": 6.0, ""Ce"": 1.0, ""P"": 3.0, ""O"": 21.0, ""H"": 12.0}",962.393,#FFFFFF,hexagonal,{47},1998.0
Petersite-(La),Cu6La(PO4)3(OH)6·3H2O,"{""Cu"": 6.0, ""La"": 1.0, ""P"": 3.0, ""O"": 21.0, ""H"": 12.0}",961.183,#FFFFFF,hexagonal,{47},1998.0
Petersite-(Y),Cu6Y(PO4)3(OH)6·3H2O,"{""Cu"": 6.0, ""Y"": 1.0, ""P"": 3.0, ""O"": 21.0, ""H"": 12.0}",911.179,#FFFFFF,hexagonal,{47},1998.0
Petitjeanite,Bi3O(PO4)2(OH),"{""Bi"": 3.0, ""O"": 10.0, ""P"": 2.0, ""H"": 1.0}",849.886,#FFFFFF,triclinic,{47},1998.0
Petricekite,CuSe2,"{""Cu"": 1.0, ""Se"": 2.0}",221.488,#00BFFF,orthorhombic,{33},797.0
Petrovicite,Cu3HgPbBiSe5,"{""Cu"": 3.0, ""Hg"": 1.0, ""Pb"": 1.0, ""Bi"": 1.0, ""Se"": 5.0}",1202.263,#FFFFFF,orthorhombic,{33},797.0
Petrovite,Na12Cu2(SO4)8,"{""Na"": 12.0, ""Cu"": 2.0, ""S"": 8.0, ""O"": 32.0}",1171.42,#FFFFFF,monoclinic,{45},424.0
Petrovskaite,AuAgS,"{""Au"": 1.0, ""Ag"": 1.0, ""S"": 1.0}",336.9,#A9A9A9,monoclinic,{33},797.0
Petscheckite,U4+Fe2+Nb2O8,"{""U"": 1.0, ""Fe"": 1.0, ""Nb"": 2.0, ""O"": 8.0}",607.679,#556B2F,hexagonal,{34},564.0
Petterdite,PbCr2(CO3)2(OH)4·H2O,"{""Pb"": 1.0, ""Cr"": 2.0, ""C"": 2.0, ""O"": 11.0, ""H"": 6.0}",517.251,#FFFFFF,orthorhombic,{47},1998.0
Petzite,Ag3AuTe2,"{""Ag"": 3.0, ""Au"": 1.0, ""Te"": 2.0}",775.78,#FFD700,cubic,{33},797.0
Pezzottaite,CsLiBe2Al2Si6O18,"{""Cs"": 1.0, ""Li"": 1.0, ""Be"": 2.0, ""Al"": 2.0, ""Si"": 6.0, ""O"": 18.0}",668.3304,#FFFFFF,hexagonal,{34},564.0
Pfaffenbergite,KNa3(Al4Si12)O32,"{""K"": 1.0, ""Na"": 3.0, ""Al"": 4.0, ""Si"": 12.0, ""O"": 32.0}",1064.984,#FFFFFF,hexagonal,{},1.0
Pharmacolite,Ca(AsO3OH)·2H2O,"{""Ca"": 1.0, ""As"": 1.0, ""O"": 6.0, ""H"": 5.0}",216.034,#FFFFFF,monoclinic,"{47,55}",2262.0
Pharmacosiderite,KFe3+4(AsO4)3(OH)4·6-7H2O,"{""K"": 1.0, ""Fe"": 4.0, ""As"": 3.0, ""O"": 23.0, ""H"": 18.0}",873.365,#556B2F,cubic,{47},1998.0
Phaunouxite,Ca3(AsO4)2·11H2O,"{""Ca"": 3.0, ""As"": 2.0, ""O"": 19.0, ""H"": 22.0}",596.235,#FFFFFF,triclinic,"{47,55}",2262.0
Phenakite,Be2(SiO4),"{""Be"": 2.0, ""Si"": 1.0, ""O"": 4.0}",110.1054,#FFFFFF,hexagonal,"{23,34}",962.0
Philipsbornite,PbAl3(AsO4)(AsO3OH)(OH)6,"{""Pb"": 1.0, ""Al"": 3.0, ""As"": 2.0, ""O"": 14.0, ""H"": 7.0}",669.032,#FFFFFF,hexagonal,{47},1998.0
Phillipsite-Ca,Ca3(Si10Al6)O32·12H2O,"{""Ca"": 3.0, ""Si"": 10.0, ""Al"": 6.0, ""O"": 44.0, ""H"": 24.0}",1291.124,#FFFFFF,orthorhombic,"{9,10,16,17,22,24,25,35,47,48}",3694.0
Phillipsite-K,K6(Si10Al6)O32·12H2O,"{""K"": 6.0, ""Si"": 10.0, ""Al"": 6.0, ""O"": 44.0, ""H"": 24.0}",1405.478,#FFFFFF,orthorhombic,"{9,10,16,17,22,24,25,35,47,48}",3694.0
Phillipsite-Na,Na6(Si10Al6)O32·12H2O,"{""Na"": 6.0, ""Si"": 10.0, ""Al"": 6.0, ""O"": 44.0, ""H"": 24.0}",1308.83,#FFFFFF,orthorhombic,"{9,10,16,17,22,24,25,35,47,48}",3694.0
Philrothite,TlAs3S5,"{""Tl"": 1.0, ""As"": 3.0, ""S"": 5.0}",589.446,#FFD700,monoclinic,{33},797.0
Phlogopite,KMg3(AlSi3O10)(OH)2,"{""K"": 1.0, ""Mg"": 3.0, ""Al"": 1.0, ""Si"": 3.0, ""O"": 12.0, ""H"": 2.0}",417.254,#FFFFFF,hexagonal,"{6,7,31,35,36,38,40}",2128.0
Phoenicochroite,Pb2O(CrO4),"{""Pb"": 2.0, ""O"": 5.0, ""Cr"": 1.0}",546.391,#228B22,monoclinic,"{45,47}",2422.0
Phosgenite,Pb2(CO3)Cl2,"{""Pb"": 2.0, ""C"": 1.0, ""O"": 3.0, ""Cl"": 2.0}",545.308,#FFFFFF,tetragonal,"{47,55,56,57}",2454.0
Phosinaite-(Ce),Na13Ca2Ce(SiO3)4(PO4)4,"{""Na"": 13.0, ""Ca"": 2.0, ""Ce"": 1.0, ""Si"": 4.0, ""O"": 28.0, ""P"": 4.0}",1203.354,#FFFFFF,orthorhombic,{35},726.0
Phosphammite,(NH4)2(PO3OH),"{""N"": 2.0, ""H"": 9.0, ""P"": 1.0, ""O"": 4.0}",132.056,#FFFFFF,monoclinic,"{47,52}",2070.0
Phosphocyclite-(Fe),Fe2+2(P4O12),"{""Fe"": 2.0, ""P"": 4.0, ""O"": 12.0}",427.574,#8B4513,monoclinic,{51},128.0
Phosphocyclite-(Ni),Ni2(P4O12),"{""Ni"": 2.0, ""P"": 4.0, ""O"": 12.0}",433.27,#7FFF00,monoclinic,{51},128.0
Phosphoferrite,Fe2+3(PO4)2·3H2O,"{""Fe"": 3.0, ""P"": 2.0, ""O"": 11.0, ""H"": 6.0}",411.52,#556B2F,orthorhombic,"{34,47}",2562.0
Phosphohedyphane,Ca2Pb3(PO4)3Cl,"{""Ca"": 2.0, ""Pb"": 3.0, ""P"": 3.0, ""O"": 12.0, ""Cl"": 1.0}",1022.116,#FFFFFF,hexagonal,"{45,47}",2422.0
Phosphoinnelite,Na3Ba4Ti3Si4O14(PO4)2O2F,"{""Na"": 3.0, ""Ba"": 4.0, ""Ti"": 3.0, ""Si"": 4.0, ""O"": 24.0, ""P"": 2.0, ""F"": 1.0}",1339.153,#FFFFFF,triclinic,{35},726.0
Phosphorrosslerite,Mg(PO3OH)·7H2O,"{""Mg"": 1.0, ""P"": 1.0, ""O"": 11.0, ""H"": 15.0}",246.388,#FFFFFF,unknown,"{47,55}",2262.0
Phosphosiderite,Fe3+(PO4)·2H2O,"{""Fe"": 1.0, ""P"": 1.0, ""O"": 6.0, ""H"": 4.0}",186.845,#556B2F,monoclinic,"{47,53}",2115.0
Phosphovanadylite-Ba,Ba[V4+4P2O12(OH)4]·12H2O,"{""Ba"": 1.0, ""V"": 4.0, ""P"": 2.0, ""O"": 28.0, ""H"": 28.0}",879.242,#FFFFFF,cubic,{47},1998.0
Phosphovanadylite-Ca,Ca[V4+4P2O12(OH)4]·12H2O,"{""Ca"": 1.0, ""V"": 4.0, ""P"": 2.0, ""O"": 28.0, ""H"": 28.0}",781.99,#FFFFFF,cubic,{47},1998.0
Phosphowalpurgite,(UO2)Bi4O4(PO4)2·2H2O,"{""U"": 1.0, ""O"": 16.0, ""Bi"": 4.0, ""P"": 2.0, ""H"": 4.0}",1395.914,#FFFFFF,triclinic,{47},1998.0
Phosphuranylite,KCa(H3O)3(UO2)7(PO4)4O4·8H2O,"{""K"": 1.0, ""Ca"": 1.0, ""H"": 25.0, ""O"": 45.0, ""U"": 7.0, ""P"": 4.0}",2614.437,#FFFFFF,orthorhombic,{47},1998.0
Phoxite,(NH4)2Mg2(C2O4)(PO3OH)2(H2O)4,"{""N"": 2.0, ""H"": 18.0, ""Mg"": 2.0, ""C"": 2.0, ""O"": 16.0, ""P"": 2.0}",436.722,#FFFFFF,monoclinic,{52},72.0
Phuralumite,Al2[(UO2)3(PO4)2O(OH)](OH)3(H2O)9,"{""Al"": 2.0, ""U"": 3.0, ""O"": 28.0, ""P"": 2.0, ""H"": 22.0}",1300.15,#FFFFFF,monoclinic,{47},1998.0
Phurcalite,Ca2(UO2)3O2(PO4)2·7H2O,"{""Ca"": 2.0, ""U"": 3.0, ""O"": 23.0, ""P"": 2.0, ""H"": 14.0}",1238.283,#FFFFFF,orthorhombic,{47},1998.0
Phylloretine,C18H18,"{""C"": 18.0, ""H"": 18.0}",234.342,#FFFFFF,unknown,"{50,53}",390.0
Phyllotungstite,HCaFe3+3(WO4)6·10H2O,"{""H"": 21.0, ""Ca"": 1.0, ""Fe"": 3.0, ""W"": 6.0, ""O"": 34.0}",1875.787,#556B2F,orthorhombic,{47},1998.0
Picaite,NaCa[AsO3OH][AsO2(OH)2],"{""Na"": 1.0, ""Ca"": 1.0, ""As"": 2.0, ""O"": 8.0, ""H"": 3.0}",343.928,#FFFFFF,monoclinic,{47},1998.0
Pickeringite,MgAl2(SO4)4·22H2O,"{""Mg"": 1.0, ""Al"": 2.0, ""S"": 4.0, ""O"": 38.0, ""H"": 44.0}",858.823,#FFFFFF,monoclinic,"{21,45,47,50,54,55}",3272.0
Picotpaulite,TlFe2S3,"{""Tl"": 1.0, ""Fe"": 2.0, ""S"": 3.0}",412.25,#DAA520,orthorhombic,"{23,33}",1195.0
Picromerite,K2Mg(SO4)2·6H2O,"{""K"": 2.0, ""Mg"": 1.0, ""S"": 2.0, ""O"": 14.0, ""H"": 12.0}",402.703,#FFFFFF,monoclinic,"{25,45,47,55,56}",3039.0
Picropharmacolite,Ca4Mg(AsO3OH)2(AsO4)2·11H2O,"{""Ca"": 4.0, ""Mg"": 1.0, ""As"": 4.0, ""O"": 27.0, ""H"": 24.0}",940.47,#FFFFFF,triclinic,"{47,55,56}",2405.0
Piergorite-(Ce),Ca8Ce2AlLiSi6B8O36(OH)2,"{""Ca"": 8.0, ""Ce"": 2.0, ""Al"": 1.0, ""Li"": 1.0, ""Si"": 6.0, ""B"": 8.0, ""O"": 38.0, ""H"": 2.0}",1499.754,#FFFFFF,monoclinic,"{9,10,35}",960.0
Pigotite,Al4C6H5O10·13H2O (?),"{""Al"": 4.0, ""C"": 6.0, ""H"": 31.0, ""O"": 23.0}",579.219,#FFFFFF,unknown,"{52,53}",189.0
Pilanesbergite,Na2Ca2Fe2Ti2(Si2O7)2O2F2,"{""Na"": 2.0, ""Ca"": 2.0, ""Fe"": 2.0, ""Ti"": 2.0, ""Si"": 4.0, ""O"": 16.0, ""F"": 2.0}",739.88,#556B2F,monoclinic,{},1.0
Pilawite-(Y),Ca2Y2Al4(SiO4)4O2(OH)2,"{""Ca"": 2.0, ""Y"": 2.0, ""Al"": 4.0, ""Si"": 4.0, ""O"": 20.0, ""H"": 2.0}",800.232,#FFFFFF,monoclinic,{34},564.0
Pilipenkoite,KCu(AsO4)·H2O,"{""K"": 1.0, ""Cu"": 1.0, ""As"": 1.0, ""O"": 5.0, ""H"": 2.0}",259.577,#FFFFFF,unknown,{45},424.0
Pilsenite,Bi4Te3,"{""Bi"": 4.0, ""Te"": 3.0}",1218.72,#D2B48C,hexagonal,{33},797.0
Pinalite,Pb3(WO4)OCl2,"{""Pb"": 3.0, ""W"": 1.0, ""O"": 5.0, ""Cl"": 2.0}",956.335,#FFFFFF,orthorhombic,{47},1998.0
Pinchite,Hg5O4Cl2,"{""Hg"": 5.0, ""O"": 4.0, ""Cl"": 2.0}",1137.846,#FFFFFF,orthorhombic,{47},1998.0
Pingguite,Bi6Te6+2O15,"{""Bi"": 6.0, ""Te"": 2.0, ""O"": 15.0}",1749.065,#D2B48C,orthorhombic,{47},1998.0
Pinnoite,MgB2O(OH)6,"{""Mg"": 1.0, ""B"": 2.0, ""O"": 7.0, ""H"": 6.0}",163.966,#FFFFFF,tetragonal,{25},210.0
Pintadoite,Ca2V5+2O7·9H2O,"{""Ca"": 2.0, ""V"": 2.0, ""O"": 16.0, ""H"": 18.0}",456.168,#FFFFFF,unknown,{47},1998.0
Piretite,Ca(UO2)3(Se4+O3)2(OH)4·4H2O,"{""Ca"": 1.0, ""U"": 3.0, ""O"": 20.0, ""Se"": 2.0, ""H"": 12.0}",1244.186,#FFFFFF,orthorhombic,{47},1998.0
Pirssonite,Na2Ca(CO3)2·2H2O,"{""Na"": 2.0, ""Ca"": 1.0, ""C"": 2.0, ""O"": 8.0, ""H"": 4.0}",242.104,#FFFFFF,orthorhombic,"{25,35}",936.0
Pitiglianoite,K2Na6(Si6Al6)O24(SO4)·2H2O,"{""K"": 2.0, ""Na"": 6.0, ""Si"": 6.0, ""Al"": 6.0, ""O"": 30.0, ""S"": 1.0, ""H"": 4.0}",1062.6,#FFFFFF,hexagonal,"{31,35}",1082.0
Plagionite,Pb5Sb8S17,"{""Pb"": 5.0, ""Sb"": 8.0, ""S"": 17.0}",2555.1,#708090,monoclinic,{33},797.0
Plancheite,Cu8(Si4O11)2(OH)4·H2O,"{""Cu"": 8.0, ""Si"": 8.0, ""O"": 27.0, ""H"": 6.0}",1171.069,#FFFFFF,orthorhombic,{47},1998.0
Planerite,Al6(PO4)2(PO3OH)2(OH)8·4H2O,"{""Al"": 6.0, ""P"": 4.0, ""O"": 28.0, ""H"": 18.0}",751.904,#FFFFFF,triclinic,{47},1998.0
Plasilite,Na(UO2)(SO4)(OH)·2H2O,"{""Na"": 1.0, ""U"": 1.0, ""O"": 9.0, ""S"": 1.0, ""H"": 5.0}",442.111,#FFFFFF,monoclinic,"{47,55}",2262.0
Platinum,Pt,"{""Pt"": 1.0}",195.08,#FFFFFF,cubic,"{26,36,37,38}",784.0
Plattnerite,PbO2,"{""Pb"": 1.0, ""O"": 2.0}",239.198,#FFFFFF,tetragonal,"{50,54,56}",650.0
Pliniusite,Ca5(VO4)3F,"{""Ca"": 5.0, ""V"": 3.0, ""O"": 12.0, ""F"": 1.0}",564.202,#FFFFFF,hexagonal,"{45,50,51,54,56}",1202.0
Plombierite,Ca4Si6O16(OH)2(H2O)2·(Ca·5H2O),"{""Ca"": 9.0, ""Si"": 6.0, ""O"": 45.0, ""H"": 56.0}",1305.615,#FFFFFF,monoclinic,"{31,51}",484.0
Plumbogaidonnayite,PbZrSi3O9·2H2O,"{""Pb"": 1.0, ""Zr"": 1.0, ""Si"": 3.0, ""O"": 11.0, ""H"": 4.0}",562.7,#FFFFFF,orthorhombic,{},1.0
Plumbogummite,PbAl3(PO4)(PO3OH)(OH)6,"{""Pb"": 1.0, ""Al"": 3.0, ""P"": 2.0, ""O"": 14.0, ""H"": 7.0}",581.136,#FFFFFF,hexagonal,{47},1998.0
Plumbojohntomaite,PbFe2+2Fe3+2(PO4)3(OH)3,"{""Pb"": 1.0, ""Fe"": 4.0, ""P"": 3.0, ""O"": 15.0, ""H"": 3.0}",766.511,#556B2F,monoclinic,{},1.0
Plumbonacrite,Pb5(CO3)3O(OH)2,"{""Pb"": 5.0, ""C"": 3.0, ""O"": 12.0, ""H"": 2.0}",1266.037,#FFFFFF,hexagonal,"{47,56}",2141.0
Plumbopalladinite,Pd3Pb2,"{""Pd"": 3.0, ""Pb"": 2.0}",733.66,#FFFFFF,hexagonal,"{33,37}",932.0
Plumbophyllite,Pb2Si4O10·H2O,"{""Pb"": 2.0, ""Si"": 4.0, ""O"": 11.0, ""H"": 2.0}",704.745,#FFFFFF,orthorhombic,{47},1998.0
Plumboselite,Pb3O2(SeO3),"{""Pb"": 3.0, ""O"": 5.0, ""Se"": 1.0}",780.566,#FFFFFF,orthorhombic,{47},1998.0
Plumbotellurite,Pb(Te4+O3),"{""Pb"": 1.0, ""Te"": 1.0, ""O"": 3.0}",382.797,#FFFFFF,orthorhombic,"{47,55}",2262.0
Plumbotsumite,Pb5Si4O8(OH)10,"{""Pb"": 5.0, ""Si"": 4.0, ""O"": 18.0, ""H"": 10.0}",1446.402,#FFFFFF,triclinic,{47},1998.0
Plumosite,Pb2Sb2S5,"{""Pb"": 2.0, ""Sb"": 2.0, ""S"": 5.0}",818.22,#708090,unknown,{33},797.0
Podlesnoite,Ca2Ba(CO3)2F2,"{""Ca"": 2.0, ""Ba"": 1.0, ""C"": 2.0, ""O"": 6.0, ""F"": 2.0}",375.498,#FFFFFF,orthorhombic,{35},726.0
Poellmannite,Ca6Al3(OH)18[Na(H2O)6](SO4)2·6H2O,"{""Ca"": 6.0, ""Al"": 3.0, ""O"": 38.0, ""H"": 42.0, ""Na"": 1.0, ""S"": 2.0}",1058.822,#FFFFFF,hexagonal,{22},247.0
Pohlite,Pb7(IO3)(OH)4Cl9,"{""Pb"": 7.0, ""I"": 1.0, ""O"": 7.0, ""H"": 4.0, ""Cl"": 9.0}",2012.375,#FFFFFF,triclinic,{47},1998.0
Poirierite,Mg2SiO4,"{""Mg"": 2.0, ""Si"": 1.0, ""O"": 4.0}",140.691,#FFFFFF,orthorhombic,{6},205.0
Poitevinite,Cu(SO4)·H2O,"{""Cu"": 1.0, ""S"": 1.0, ""O"": 5.0, ""H"": 2.0}",177.617,#FFFFFF,triclinic,"{45,47}",2422.0
Pokrovskite,Mg2(CO3)(OH)2,"{""Mg"": 2.0, ""C"": 1.0, ""O"": 5.0, ""H"": 2.0}",142.632,#FFFFFF,monoclinic,{7},123.0
Polekhovskyite,MoNiP2,"{""Mo"": 1.0, ""Ni"": 1.0, ""P"": 2.0}",216.591,#7FFF00,hexagonal,{51},128.0
Polezhaevaite-(Ce),NaSrCeF6,"{""Na"": 1.0, ""Sr"": 1.0, ""Ce"": 1.0, ""F"": 6.0}",364.718,#FFFFFF,hexagonal,{35},726.0
Polkanovite,Rh12As7,"{""Rh"": 12.0, ""As"": 7.0}",1759.374,#808080,hexagonal,"{7,26,33,36,38}",1569.0
Polloneite,AgPb46As26Sb23S120,"{""Ag"": 1.0, ""Pb"": 46.0, ""As"": 26.0, ""Sb"": 23.0, ""S"": 120.0}",18234.722,#708090,monoclinic,{33},797.0
Polyarsite,Na7CaMgCu2(AsO4)4F2Cl,"{""Na"": 7.0, ""Ca"": 1.0, ""Mg"": 1.0, ""Cu"": 2.0, ""As"": 4.0, ""O"": 16.0, ""F"": 2.0, ""Cl"": 1.0}",981.523,#FFFFFF,monoclinic,{45},424.0
Polydymite,Ni2+Ni3+2S4,"{""Ni"": 3.0, ""S"": 4.0}",304.319,#A9A9A9,cubic,{12},129.0
Polyhalite,K2Ca2Mg(SO4)4·2H2O,"{""K"": 2.0, ""Ca"": 2.0, ""Mg"": 1.0, ""S"": 4.0, ""O"": 18.0, ""H"": 4.0}",602.911,#FFFFFF,triclinic,"{21,25,45,47}",2711.0
Polylithionite,KLi2AlSi4O10F2,"{""K"": 1.0, ""Li"": 2.0, ""Al"": 1.0, ""Si"": 4.0, ""O"": 10.0, ""F"": 2.0}",390.286,#FFFFFF,monoclinic,{34},564.0
Polyphite,Na6(Na4Ca2)2Na2Ti2Na2Ti2(Si2O7)2(PO4)6O4F4,"{""Na"": 18.0, ""Ca"": 4.0, ""Ti"": 4.0, ""Si"": 4.0, ""O"": 42.0, ""P"": 6.0, ""F"": 4.0}",1811.734,#FFFFFF,triclinic,{35},726.0
Pomite,Ca3[V4+5V5+10O37(CO3)]·37H2O,"{""Ca"": 3.0, ""V"": 15.0, ""O"": 77.0, ""C"": 1.0, ""H"": 74.0}",2202.89,#FFFFFF,triclinic,{47},1998.0
Ponomarevite,K4Cu4OCl10,"{""K"": 4.0, ""Cu"": 4.0, ""O"": 1.0, ""Cl"": 10.0}",781.075,#FFFFFF,monoclinic,{45},424.0
Popovite,Cu5O2(AsO4)2,"{""Cu"": 5.0, ""O"": 10.0, ""As"": 2.0}",627.564,#00BFFF,triclinic,{45},424.0
Popugaevaite,Ca3[B5O6(OH)6]FCl2·8H2O,"{""Ca"": 3.0, ""B"": 5.0, ""O"": 20.0, ""H"": 22.0, ""F"": 1.0, ""Cl"": 2.0}",606.338,#FFFFFF,monoclinic,{25},210.0
Portlandite,Ca(OH)2,"{""Ca"": 1.0, ""O"": 2.0, ""H"": 2.0}",74.092,#FFFFFF,hexagonal,"{31,33,45,50,51,54,56}",2355.0
Posnjakite,Cu4(SO4)(OH)6·H2O,"{""Cu"": 4.0, ""S"": 1.0, ""O"": 11.0, ""H"": 8.0}",470.297,#FFFFFF,monoclinic,"{47,55,56}",2405.0
Postite,Mg(H2O)6Al2(OH)2(H2O)8(V10O28)·13H2O,"{""Mg"": 1.0, ""H"": 56.0, ""O"": 57.0, ""Al"": 2.0, ""V"": 10.0}",1556.08,#FFFFFF,orthorhombic,"{47,55}",2262.0
Potarite,PdHg,"{""Pd"": 1.0, ""Hg"": 1.0}",307.01,#FFFFFF,tetragonal,"{7,26,33,37}",1305.0
Potassic-arfvedsonite,KNa2(Fe2+4Fe3+)Si8O22(OH)2,"{""K"": 1.0, ""Na"": 2.0, ""Fe"": 5.0, ""Si"": 8.0, ""O"": 24.0, ""H"": 2.0}",974.975,#556B2F,monoclinic,"{17,35,36}",1068.0
Potassic-chloro-hastingsite,KCa2(Fe2+4Fe3+)(Si6Al2)O22Cl2,"{""K"": 1.0, ""Ca"": 2.0, ""Fe"": 5.0, ""Si"": 6.0, ""Al"": 2.0, ""O"": 22.0, ""Cl"": 2.0}",1043.831,#556B2F,monoclinic,"{12,22,26,31,40}",1301.0
Potassic-chloro-pargasite,KCa2(Mg4Al)(Si6Al2)O22Cl2,"{""K"": 1.0, ""Ca"": 2.0, ""Mg"": 4.0, ""Al"": 3.0, ""Si"": 6.0, ""O"": 22.0, ""Cl"": 2.0}",888.808,#FFFFFF,monoclinic,{31},356.0
Potassic-ferri-leakeite,KNa2(Mg2Fe3+2Li)Si8O22(OH)2,"{""K"": 1.0, ""Na"": 2.0, ""Mg"": 2.0, ""Fe"": 2.0, ""Li"": 1.0, ""Si"": 8.0, ""O"": 24.0, ""H"": 2.0}",862.99,#556B2F,monoclinic,"{19,32}",555.0
Potassic-ferro-ferri-sadanagaite,KCa2(Fe2+3Fe3+2)(Si5Al3)O22(OH)2,"{""K"": 1.0, ""Ca"": 2.0, ""Fe"": 5.0, ""Si"": 5.0, ""Al"": 3.0, ""O"": 24.0, ""H"": 2.0}",1005.842,#556B2F,monoclinic,{35},726.0
Potassic-ferro-ferri-taramite,K(NaCa)(Fe2+3Fe3+2)(Si6Al2)O22(OH)2,"{""K"": 1.0, ""Na"": 1.0, ""Ca"": 1.0, ""Fe"": 5.0, ""Si"": 6.0, ""Al"": 2.0, ""O"": 24.0, ""H"": 2.0}",989.857,#556B2F,unknown,{35},726.0
Potassic-ferro-pargasite,KCa2(Fe2+4Al)(Si6Al2)O22(OH)2,"{""K"": 1.0, ""Ca"": 2.0, ""Fe"": 4.0, ""Al"": 3.0, ""Si"": 6.0, ""O"": 24.0, ""H"": 2.0}",978.082,#556B2F,monoclinic,"{31,35}",1082.0
Potassic-ferro-sadanagaite,KCa2(Fe2+3Al2)(Si5Al3)O22(OH)2,"{""K"": 1.0, ""Ca"": 2.0, ""Fe"": 3.0, ""Al"": 5.0, ""Si"": 5.0, ""O"": 24.0, ""H"": 2.0}",948.116,#556B2F,unknown,"{8,40}",412.0
Potassic-ferro-taramite,K(NaCa)(Fe2+3Al2)(Si6Al2)O22(OH)2,"{""K"": 1.0, ""Na"": 1.0, ""Ca"": 1.0, ""Fe"": 3.0, ""Al"": 4.0, ""Si"": 6.0, ""O"": 24.0, ""H"": 2.0}",932.131,#556B2F,monoclinic,{40},319.0
Potassic-fluoro-hastingsite,KCa2(Fe2+4Fe3+)(Si6Al2)O22F2,"{""K"": 1.0, ""Ca"": 2.0, ""Fe"": 5.0, ""Si"": 6.0, ""Al"": 2.0, ""O"": 22.0, ""F"": 2.0}",1010.927,#556B2F,monoclinic,{40},319.0
Potassic-fluoro-pargasite,KCa2(Mg4Al)Si6Al2O22F2,"{""K"": 1.0, ""Ca"": 2.0, ""Mg"": 4.0, ""Al"": 3.0, ""Si"": 6.0, ""O"": 22.0, ""F"": 2.0}",855.904,#FFFFFF,monoclinic,{31},356.0
Potassic-fluoro-richterite,K(NaCa)Mg5Si8O22F2,"{""K"": 1.0, ""Na"": 1.0, ""Ca"": 1.0, ""Mg"": 5.0, ""Si"": 8.0, ""O"": 22.0, ""F"": 2.0}",838.345,#FFFFFF,monoclinic,"{7,31,35,45}",1629.0
Potassic-hastingsite,KCa2(Fe2+4Fe3+)(Si6Al2)O22(OH)2,"{""K"": 1.0, ""Ca"": 2.0, ""Fe"": 5.0, ""Si"": 6.0, ""Al"": 2.0, ""O"": 24.0, ""H"": 2.0}",1006.945,#556B2F,monoclinic,"{12,22,35}",1102.0
Potassic-jeanlouisite,K(NaCa)(Mg4Ti)Si8O22O2,"{""K"": 1.0, ""Na"": 1.0, ""Ca"": 1.0, ""Mg"": 4.0, ""Ti"": 1.0, ""Si"": 8.0, ""O"": 24.0}",855.909,#FFFFFF,monoclinic,{7},123.0
Potassic-magnesio-arfvedsonite,KNa2(Mg4Fe3+)Si8O22(OH)2,"{""K"": 1.0, ""Na"": 2.0, ""Mg"": 4.0, ""Fe"": 1.0, ""Si"": 8.0, ""O"": 24.0, ""H"": 2.0}",848.815,#556B2F,monoclinic,"{17,35,36}",1068.0
Potassic-magnesio-fluoro-arfvedsonite,KNa2(Mg4Fe3+)Si8O22F2,"{""K"": 1.0, ""Na"": 2.0, ""Mg"": 4.0, ""Fe"": 1.0, ""Si"": 8.0, ""O"": 22.0, ""F"": 2.0}",852.797,#556B2F,monoclinic,"{17,35,36}",1068.0
Potassic-magnesio-hastingsite,KCa2(Mg4Fe3+)(Si6Al2)O22(OH)2,"{""K"": 1.0, ""Ca"": 2.0, ""Mg"": 4.0, ""Fe"": 1.0, ""Si"": 6.0, ""Al"": 2.0, ""O"": 24.0, ""H"": 2.0}",880.785,#556B2F,monoclinic,"{8,10,22,26}",697.0
Potassic-pargasite,KCa2(Mg4Al)(Si6Al2)O22(OH)2,"{""K"": 1.0, ""Ca"": 2.0, ""Mg"": 4.0, ""Al"": 3.0, ""Si"": 6.0, ""O"": 24.0, ""H"": 2.0}",851.922,#FFFFFF,monoclinic,"{7,31}",479.0