name,formula,elements,density,color,crystal,pm_ids,gacha_weight
Punkaruaivite,Li{Ti2(OH)2[Si4O11(OH)]}·H2O,"{""Li"": 1.0, ""Ti"": 2.0, ""O"": 15.0, ""H"": 5.0, ""Si"": 4.0}",460.039,#FFFFFF,monoclinic,{35},4.132e-09
Purpurite,Mn3+(PO4),"{""Mn"": 1.0, ""P"": 1.0, ""O"": 4.0}",149.908,#FFB6C1,orthorhombic,"{34,47,52}",1.5338e-08
Puschridgeite,Mn(C2H3O3)2(H2O)2,"{""Mn"": 1.0, ""C"": 4.0, ""H"": 10.0, ""O"": 8.0}",241.054,#FFFFFF,monoclinic,{},5e-08
Putnisite,SrCa4Cr3+8(CO3)8(SO4)(OH)16·25H2O,"{""Sr"": 1.0, ""Ca"": 4.0, ""Cr"": 8.0, ""C"": 8.0, ""O"": 69.0, ""S"": 1.0, ""H"": 66.0}",1962.507,#FFFFFF,orthorhombic,{47},3.003e-09
Puttapaite,Pb2Mn2+2ZnCr3+4O2(AsO4)4(OH)6·12H2O,"{""Pb"": 2.0, ""Mn"": 2.0, ""Zn"": 1.0, ""Cr"": 4.0, ""O"": 36.0, ""As"": 4.0, ""H"": 30.0}",1703.532,#FFFFFF,monoclinic,{47},7.508e-09
Pyatenkoite-(Y),Na5YTiSi6O18·6H2O,"{""Na"": 5.0, ""Y"": 1.0, ""Ti"": 1.0, ""Si"": 6.0, ""O"": 24.0, ""H"": 12.0}",816.305,#FFFFFF,hexagonal,{35},4.132e-09
Pyracmonite,(NH4)3Fe(SO4)3,"{""N"": 3.0, ""H"": 12.0, ""Fe"": 1.0, ""S"": 3.0, ""O"": 12.0}",398.13,#556B2F,monoclinic,"{45,50,54}",2.059e-09
Pyradoketosite,Ag3SbS3,"{""Ag"": 3.0, ""Sb"": 1.0, ""S"": 3.0}",541.55,#A9A9A9,monoclinic,{33},2.51e-10
Pyrargyrite,Ag3SbS3,"{""Ag"": 3.0, ""Sb"": 1.0, ""S"": 3.0}",541.55,#A9A9A9,hexagonal,{33},2.51e-10
Pyrite,FeS2,"{""Fe"": 1.0, ""S"": 2.0}",119.965,#DAA520,triclinic,"{6,11,12,15,17,19,23,24,25,26,33,36,37,38,40,44,47,49,50,53,54,55}",9.77381e-07
Pyroaurite,Mg6Fe3+2(OH)16(CO3)·4H2O,"{""Mg"": 6.0, ""Fe"": 2.0, ""O"": 23.0, ""H"": 24.0, ""C"": 1.0}",661.7,#556B2F,hexagonal,"{13,50,54}",2.28619e-07
Pyrobelonite,PbMn2+VO4(OH),"{""Pb"": 1.0, ""Mn"": 1.0, ""V"": 1.0, ""O"": 5.0, ""H"": 1.0}",394.083,#FFFFFF,orthorhombic,"{32,47}",8.721e-09
Pyrochroite,Mn2+(OH)2,"{""Mn"": 1.0, ""O"": 2.0, ""H"": 2.0}",88.952,#FFB6C1,hexagonal,"{32,33,47}",9.348e-09
Pyrolusite,MnO2,"{""Mn"": 1.0, ""O"": 2.0}",86.936,#FFB6C1,tetragonal,"{22,24,32,47}",1.7502e-08
Pyromorphite,Pb5(PO4)3Cl,"{""Pb"": 5.0, ""P"": 3.0, ""O"": 12.0, ""Cl"": 1.0}",1356.36,#FFFFFF,hexagonal,"{45,47}",1.7374e-08
Pyrope,Mg3Al2(SiO4)3,"{""Mg"": 3.0, ""Al"": 2.0, ""Si"": 3.0, ""O"": 12.0}",403.122,#FFFFFF,cubic,"{7,26,36,39}",3.88079e-07
Pyrophanite,Mn2+TiO3,"{""Mn"": 1.0, ""Ti"": 1.0, ""O"": 3.0}",150.802,#FFB6C1,hexagonal,"{6,13,19,32}",1.759367e-06
Pyrophyllite,Al2Si4O10(OH)2,"{""Al"": 2.0, ""Si"": 4.0, ""O"": 12.0, ""H"": 2.0}",360.308,#FFFFFF,triclinic,"{23,40,48}",3.278168e-05
Pyrosmalite-(Fe),Fe2+8Si6O15(OH)10,"{""Fe"": 8.0, ""Si"": 6.0, ""O"": 25.0, ""H"": 10.0}",1025.325,#556B2F,hexagonal,{32},4.6117e-08
Pyrostilpnite,Ag3SbS3,"{""Ag"": 3.0, ""Sb"": 1.0, ""S"": 3.0}",541.55,#A9A9A9,monoclinic,{33},2.51e-10
Pyroxferroite,Fe2+SiO3,"{""Fe"": 1.0, ""Si"": 1.0, ""O"": 3.0}",131.927,#8B4513,triclinic,{32},4.6117e-08
Pyroxmangite,Mn2+SiO3,"{""Mn"": 1.0, ""Si"": 1.0, ""O"": 3.0}",131.02,#FFB6C1,triclinic,"{22,32,34}",4.124e-09
Pyrrhotite,Fe7S8,"{""Fe"": 7.0, ""S"": 8.0}",647.395,#DAA520,hexagonal,"{6,12,14,15,26,31,33,36,37,38,40,49,50,54}",2.09961e-07
Qaqarssukite-(Ce),BaCe(CO3)2F,"{""Ba"": 1.0, ""Ce"": 1.0, ""C"": 2.0, ""O"": 6.0, ""F"": 1.0}",416.464,#FFFFFF,hexagonal,{36},1.718e-09
Qatranaite,CaZn2(OH)6(H2O)2,"{""Ca"": 1.0, ""Zn"": 2.0, ""O"": 8.0, ""H"": 10.0}",308.91,#FFFFFF,monoclinic,"{47,51}",2.28275e-07
Qeltite,Ca3TiSi2(Fe3+2Si)O14,"{""Ca"": 3.0, ""Ti"": 1.0, ""Si"": 3.0, ""Fe"": 2.0, ""O"": 14.0}",588.032,#556B2F,hexagonal,{51},2.3438e-08
Qilianshanite,NaH4(CO3)(BO3)·2H2O,"{""Na"": 1.0, ""H"": 8.0, ""C"": 1.0, ""O"": 8.0, ""B"": 1.0}",181.867,#FFFFFF,monoclinic,"{25,47}",1.97769e-07
Qingheiite,NaNaMn(MgAl)(PO4)3,"{""Na"": 2.0, ""Mn"": 1.0, ""Mg"": 1.0, ""Al"": 1.0, ""P"": 3.0, ""O"": 12.0}",437.115,#FFFFFF,monoclinic,{34},8.87e-10
Qingsongite,BN,"{""B"": 1.0, ""N"": 1.0}",24.817,#FFFFFF,cubic,"{7,36,38,39}",3.51115e-07
Qitianlingite,Fe2+2Nb2W6+O10,"{""Fe"": 2.0, ""Nb"": 2.0, ""W"": 1.0, ""O"": 10.0}",641.332,#556B2F,orthorhombic,{34},1.773e-08
Qiumingite,Pb3(Zn2Fe3+)Sb5+P2O14,"{""Pb"": 3.0, ""Zn"": 2.0, ""Fe"": 1.0, ""Sb"": 1.0, ""P"": 2.0, ""O"": 14.0}",1215.899,#556B2F,hexagonal,{},1e-07
Quadratite,AgCdAsS3,"{""Ag"": 1.0, ""Cd"": 1.0, ""As"": 1.0, ""S"": 3.0}",391.382,#FFD700,tetragonal,{33},2.51e-10
Quadruphite,Na6Na2(CaNa)2Na2Ti2Na2Ti2(Si2O7)2(PO4)4O4F2,"{""Na"": 14.0, ""Ca"": 2.0, ""Ti"": 4.0, ""Si"": 4.0, ""O"": 34.0, ""P"": 4.0, ""F"": 2.0}",1411.682,#FFFFFF,triclinic,{35},6.89e-10
Quartz,SiO2,"{""Si"": 1.0, ""O"": 2.0}",60.083,#FFFFFF,hexagonal,"{3,5,6,9,10,14,19,23,24,26,34,35,43,49}",0.000878486391
Quatrandorite,AgPbSb3S6,"{""Ag"": 1.0, ""Pb"": 1.0, ""Sb"": 3.0, ""S"": 6.0}",872.71,#708090,monoclinic,{33},2.51e-10
Queitite,Zn2Pb4(Si2O7)(SiO4)(SO4),"{""Zn"": 2.0, ""Pb"": 4.0, ""Si"": 3.0, ""O"": 15.0, ""S"": 1.0}",1315.86,#FFFFFF,monoclinic,{47},3.003e-09
Quenselite,PbMn3+O2(OH),"{""Pb"": 1.0, ""Mn"": 1.0, ""O"": 3.0, ""H"": 1.0}",311.143,#FFFFFF,monoclinic,{32},1.214e-09
Quenstedtite,Fe3+2(SO4)3·11H2O,"{""Fe"": 2.0, ""S"": 3.0, ""O"": 23.0, ""H"": 22.0}",598.023,#556B2F,triclinic,{47},3.003e-09
Quijarroite,Cu6HgPb2Bi4Se12,"{""Cu"": 6.0, ""Hg"": 1.0, ""Pb"": 2.0, ""Bi"": 4.0, ""Se"": 12.0}",2779.838,#FFFFFF,orthorhombic,{33},1.2547e-08
Quintinite,Mg4Al2(OH)12(CO3)·3H2O,"{""Mg"": 4.0, ""Al"": 2.0, ""O"": 18.0, ""H"": 18.0, ""C"": 1.0}",469.321,#FFFFFF,hexagonal,"{35,36,47}",1.98289e-07
Qusongite,WC,"{""W"": 1.0, ""C"": 1.0}",195.851,#FFFFFF,hexagonal,"{7,26,36,38,39}",3.91115e-07
Raadeite,Mg7(PO4)2(OH)8,"{""Mg"": 7.0, ""P"": 2.0, ""O"": 16.0, ""H"": 8.0}",496.131,#FFFFFF,monoclinic,"{13,47}",2.994e-08
Rabbittite,Ca3Mg3(UO2)2(CO3)6(OH)4·18H2O,"{""Ca"": 3.0, ""Mg"": 3.0, ""U"": 2.0, ""O"": 44.0, ""C"": 6.0, ""H"": 40.0}",1485.551,#FFFFFF,monoclinic,"{47,55}",1.88029e-07
Rabejacite,Ca2[(UO2)4O4(SO4)2](H2O)8,"{""Ca"": 2.0, ""U"": 4.0, ""O"": 28.0, ""S"": 2.0, ""H"": 16.0}",1560.496,#FFFFFF,orthorhombic,{47},3.003e-09
Raberite,Tl5Ag4As6SbS15,"{""Tl"": 5.0, ""Ag"": 4.0, ""As"": 6.0, ""Sb"": 1.0, ""S"": 15.0}",2505.572,#FFD700,triclinic,{33},2.51e-10
Radekskodaite-(Ce),(CaCe5)(Al4Fe2+)[Si2O7][SiO4]5O(OH)3,"{""Ca"": 1.0, ""Ce"": 5.0, ""Al"": 4.0, ""Fe"": 1.0, ""Si"": 7.0, ""O"": 31.0, ""H"": 3.0}",1600.039,#556B2F,monoclinic,{35},1.3774e-08
Radekskodaite-(La),(CaLa5)(Al4Fe2+)[Si2O7][SiO4]5O(OH)3,"{""Ca"": 1.0, ""La"": 5.0, ""Al"": 4.0, ""Fe"": 1.0, ""Si"": 7.0, ""O"": 31.0, ""H"": 3.0}",1593.989,#556B2F,monoclinic,{35},1.3774e-08
Radovanite,Cu2Fe3+[As5+O4][As3+O2(OH)]2·H2O,"{""Cu"": 2.0, ""Fe"": 1.0, ""As"": 3.0, ""O"": 11.0, ""H"": 4.0}",587.724,#556B2F,orthorhombic,{47},1.5015e-07
Radtkeite,Hg3S2ClI,"{""Hg"": 3.0, ""S"": 2.0, ""Cl"": 1.0, ""I"": 1.0}",828.24,#A9A9A9,monoclinic,"{25,33,47}",4.206e-09
Radvaniceite,GeS2,"{""Ge"": 1.0, ""S"": 2.0}",136.75,#A9A9A9,monoclinic,{54},8.55e-10
Raguinite,TlFeS2,"{""Tl"": 1.0, ""Fe"": 1.0, ""S"": 2.0}",324.345,#DAA520,monoclinic,"{23,33}",3.5427e-08
Raisaite,CuMg[Te6+O4(OH)2]·6H2O,"{""Cu"": 1.0, ""Mg"": 1.0, ""Te"": 1.0, ""O"": 12.0, ""H"": 14.0}",421.551,#FFFFFF,monoclinic,{47},1.5015e-07
Rajite,CuTe4+2O5,"{""Cu"": 1.0, ""Te"": 2.0, ""O"": 5.0}",398.741,#00BFFF,monoclinic,{47},1.5015e-07
Rakovanite,(NH4)3Na3[V10O28]·12H2O,"{""N"": 3.0, ""H"": 36.0, ""Na"": 3.0, ""V"": 10.0, ""O"": 40.0}",1296.659,#FFFFFF,monoclinic,"{47,53,55}",2.73499e-07
Ralphcannonite,AgZn2TlAs2S6,"{""Ag"": 1.0, ""Zn"": 2.0, ""Tl"": 1.0, ""As"": 2.0, ""S"": 6.0}",785.214,#FFD700,tetragonal,{33},2.51e-10
Ramaccioniite,Cu4[SeO4](OH)6,"{""Cu"": 4.0, ""Se"": 1.0, ""O"": 10.0, ""H"": 6.0}",499.193,#FFFFFF,monoclinic,{47},1.5015e-07
Ramanite-(Cs),CsB5O6(OH)4·2H2O,"{""Cs"": 1.0, ""B"": 5.0, ""O"": 12.0, ""H"": 8.0}",387.012,#FFFFFF,monoclinic,{47},1.5015e-07
Ramanite-(Rb),RbB5O6(OH)4·2H2O,"{""Rb"": 1.0, ""B"": 5.0, ""O"": 12.0, ""H"": 8.0}",339.57,#FFFFFF,orthorhombic,{47},1.5015e-07
Rambergite,MnS,"{""Mn"": 1.0, ""S"": 1.0}",86.998,#A9A9A9,hexagonal,"{12,33,36,38}",4.34e-09
Rameauite,K2Ca(UO2)6O6(OH)4·6H2O,"{""K"": 2.0, ""Ca"": 1.0, ""U"": 6.0, ""O"": 28.0, ""H"": 16.0}",2010.554,#FFFFFF,monoclinic,{47},1.5015e-07
Rammelsbergite,NiAs2,"{""Ni"": 1.0, ""As"": 2.0}",208.537,#7FFF00,orthorhombic,{33},1.2547e-08
Ramsbeckite,Cu15(SO4)4(OH)22·6H2O,"{""Cu"": 15.0, ""S"": 4.0, ""O"": 44.0, ""H"": 34.0}",1819.658,#FFFFFF,monoclinic,"{47,55,56}",5.159e-09
Ramsdellite,MnO2,"{""Mn"": 1.0, ""O"": 2.0}",86.936,#FFB6C1,orthorhombic,"{25,28,47}",5.9888e-08
Rankinite,Ca3Si2O7,"{""Ca"": 3.0, ""Si"": 2.0, ""O"": 7.0}",288.397,#FFFFFF,monoclinic,"{31,51}",1.38079e-07
Ransomite,CuFe3+2(SO4)4·6H2O,"{""Cu"": 1.0, ""Fe"": 2.0, ""S"": 4.0, ""O"": 22.0, ""H"": 12.0}",667.55,#556B2F,monoclinic,"{47,55}",3.761e-09
Ranunculite,Al(UO2)(PO3OH)(OH)3·4H2O,"{""Al"": 1.0, ""U"": 1.0, ""O"": 13.0, ""P"": 1.0, ""H"": 12.0}",516.069,#FFFFFF,monoclinic,{47},1.5015e-08
Rapidcreekite,Ca2(SO4)(CO3)·4H2O,"{""Ca"": 2.0, ""S"": 1.0, ""O"": 11.0, ""C"": 1.0, ""H"": 8.0}",308.28,#FFFFFF,orthorhombic,"{47,56}",4.402e-09
Rappoldite,PbCo2(AsO4)2·2H2O,"{""Pb"": 1.0, ""Co"": 2.0, ""As"": 2.0, ""O"": 10.0, ""H"": 4.0}",638.932,#FFFFFF,triclinic,{47},1.5015e-07
Rasmussenite,Ca(C2H3O3)2·3H2O,"{""Ca"": 1.0, ""C"": 4.0, ""H"": 12.0, ""O"": 9.0}",244.209,#FFFFFF,triclinic,{},1e-06
Raspite,Pb(WO4),"{""Pb"": 1.0, ""W"": 1.0, ""O"": 4.0}",455.036,#FFFFFF,monoclinic,{47},1.5015e-07
Rasvumite,KFe2S3,"{""K"": 1.0, ""Fe"": 2.0, ""S"": 3.0}",246.968,#DAA520,orthorhombic,"{20,33,35,36,47}",8.661e-09
Rathite-IV,Pb3As5S10,"{""Pb"": 3.0, ""As"": 5.0, ""S"": 10.0}",1316.81,#708090,unknown,{33},2.51e-10
Rauchite,Ni(UO2)2(AsO4)2·10H2O,"{""Ni"": 1.0, ""U"": 2.0, ""O"": 22.0, ""As"": 2.0, ""H"": 20.0}",1056.735,#FFFFFF,triclinic,{47},1.5015e-07
Rauenthalite,Ca3(AsO4)2·10H2O,"{""Ca"": 3.0, ""As"": 2.0, ""O"": 18.0, ""H"": 20.0}",578.22,#FFFFFF,triclinic,"{47,55}",1.88029e-07
Rauvite,Ca(UO2)2V10O28·16H2O,"{""Ca"": 1.0, ""U"": 2.0, ""O"": 48.0, ""V"": 10.0, ""H"": 32.0}",1825.766,#FFFFFF,unknown,{47},1.5015e-07
Ravatite,C14H10,"{""C"": 14.0, ""H"": 10.0}",178.234,#FFFFFF,monoclinic,"{50,54}",7.9365e-08
Raydemarkite,MoO3·H2O,"{""Mo"": 1.0, ""O"": 4.0, ""H"": 2.0}",161.962,#FFFFFF,triclinic,{47},1.5015e-07
Raygrantite,Pb10Zn(SO4)6(SiO4)2(OH)2,"{""Pb"": 10.0, ""Zn"": 1.0, ""S"": 6.0, ""O"": 34.0, ""Si"": 2.0, ""H"": 2.0}",2931.892,#FFFFFF,triclinic,{47},3.003e-09
Realgar,AsS,"{""As"": 1.0, ""S"": 1.0}",106.982,#FFD700,monoclinic,"{11,12,14,24,33,50,54}",1.4926e-08
Reaphookhillite,MgZn2(PO4)2·4H2O,"{""Mg"": 1.0, ""Zn"": 2.0, ""P"": 2.0, ""O"": 12.0, ""H"": 8.0}",417.065,#FFFFFF,triclinic,{47},1.5015e-08
Rebulite,Tl5Sb5As8S22,"{""Tl"": 5.0, ""Sb"": 5.0, ""As"": 8.0, ""S"": 22.0}",2935.396,#FFD700,monoclinic,"{23,33}",3.5427e-08
Reckibachite,Ag2Pb12As14Sb4S40,"{""Ag"": 2.0, ""Pb"": 12.0, ""As"": 14.0, ""Sb"": 4.0, ""S"": 40.0}",5520.488,#708090,monoclinic,{},2e-08
Redcanyonite,(NH4)2Mn[(UO2)4O4(SO4)2](H2O)4,"{""N"": 2.0, ""H"": 16.0, ""Mn"": 1.0, ""U"": 4.0, ""O"": 24.0, ""S"": 2.0}",1499.296,#FFFFFF,monoclinic,"{47,53}",4.712e-09
Reddingite,Mn2+3(PO4)2·3H2O,"{""Mn"": 3.0, ""P"": 2.0, ""O"": 11.0, ""H"": 6.0}",408.799,#FFFFFF,orthorhombic,"{22,34}",2.911e-09
Redgillite,Cu6(SO4)(OH)10·H2O,"{""Cu"": 6.0, ""S"": 1.0, ""O"": 15.0, ""H"": 12.0}",665.417,#FFFFFF,monoclinic,{47},3.003e-09
Redingtonite,Fe2+Cr2(SO4)4·22H2O,"{""Fe"": 1.0, ""Cr"": 2.0, ""S"": 4.0, ""O"": 38.0, ""H"": 44.0}",940.391,#556B2F,unknown,"{47,50}",3.736e-09
Redledgeite,Ba(Ti6Cr3+2)O16,"{""Ba"": 1.0, ""Ti"": 6.0, ""Cr"": 2.0, ""O"": 16.0}",784.508,#FFFFFF,tetragonal,{7},2.439e-08
Redmondite,[Pb8O2Zn(OH)6](S2O3)4,"{""Pb"": 8.0, ""O"": 20.0, ""Zn"": 1.0, ""H"": 6.0, ""S"": 8.0}",2305.488,#FFFFFF,monoclinic,{47},3.003e-09
Redondite,Al(PO4)·2H2O,"{""Al"": 1.0, ""P"": 1.0, ""O"": 6.0, ""H"": 4.0}",157.982,#FFFFFF,unknown,{34},1.773e-09
Reedmergnerite,NaBSi3O8,"{""Na"": 1.0, ""B"": 1.0, ""Si"": 3.0, ""O"": 8.0}",246.047,#FFFFFF,triclinic,"{24,35,50}",1.85539e-07
Reevesite,Ni6Fe3+2(OH)16(CO3)·4H2O,"{""Ni"": 6.0, ""Fe"": 2.0, ""O"": 23.0, ""H"": 24.0, ""C"": 1.0}",868.028,#556B2F,hexagonal,{47},1.5015e-07
Refikite,C20H34O2,"{""C"": 20.0, ""H"": 34.0, ""O"": 2.0}",306.49,#FFFFFF,orthorhombic,"{50,53}",1.221e-07
Regerite,KFe6(PO4)4(OH)7(H2O)6·4H2O,"{""K"": 1.0, ""Fe"": 6.0, ""P"": 4.0, ""O"": 33.0, ""H"": 27.0}",1053.247,#556B2F,monoclinic,{},1e-07
Reichenbachite,Cu5(PO4)2(OH)4,"{""Cu"": 5.0, ""P"": 2.0, ""O"": 12.0, ""H"": 4.0}",575.698,#FFFFFF,monoclinic,{47},1.5015e-08
Reidite,Zr(SiO4),"{""Zr"": 1.0, ""Si"": 1.0, ""O"": 4.0}",183.305,#FFFFFF,tetragonal,{30},6.25e-07
Reinerite,Zn3(AsO3)2,"{""Zn"": 3.0, ""As"": 2.0, ""O"": 6.0}",441.978,#808080,orthorhombic,"{47,56}",2.2008e-07
Reinhardbraunsite,Ca5(SiO4)2(OH)2,"{""Ca"": 5.0, ""Si"": 2.0, ""O"": 10.0, ""H"": 2.0}",418.566,#FFFFFF,monoclinic,"{9,51}",2.03925e-07
Relianceite-(K),K4Mg(V4+O)2(C2O4)(PO3OH)4(H2O)10,"{""K"": 4.0, ""Mg"": 1.0, ""V"": 2.0, ""O"": 32.0, ""C"": 2.0, ""P"": 4.0, ""H"": 24.0}",966.659,#FFFFFF,monoclinic,"{52,55}",1.7677e-08
Renardite,Pb(UO2)4(PO4)2(OH)4·7H2O,"{""Pb"": 1.0, ""U"": 4.0, ""O"": 27.0, ""P"": 2.0, ""H"": 18.0}",1671.385,#FFFFFF,unknown,{47},1.5015e-08
Rengeite,Sr4Ti4ZrO8(Si2O7)2,"{""Sr"": 4.0, ""Ti"": 4.0, ""Zr"": 1.0, ""O"": 22.0, ""Si"": 4.0}",1097.49,#FFFFFF,monoclinic,{35},4.132e-09
Reppiaite,Mn2+5(VO4)2(OH)4,"{""Mn"": 5.0, ""V"": 2.0, ""O"": 12.0, ""H"": 4.0}",572.594,#FFFFFF,monoclinic,{47},7.508e-09
Retgersite,Ni(SO4)·6H2O,"{""Ni"": 1.0, ""S"": 1.0, ""O"": 10.0, ""H"": 12.0}",262.839,#FFFFFF,tetragonal,{47},3.003e-09
Retzian-(Ce),Mn2+2Ce(AsO4)(OH)4,"{""Mn"": 2.0, ""Ce"": 1.0, ""As"": 1.0, ""O"": 8.0, ""H"": 4.0}",456.942,#FFFFFF,orthorhombic,{47},7.508e-09
Retzian-(La),Mn2+2La(AsO4)(OH)4,"{""Mn"": 2.0, ""La"": 1.0, ""As"": 1.0, ""O"": 8.0, ""H"": 4.0}",455.732,#FFFFFF,orthorhombic,{47},7.508e-09
Retzian-(Nd),Mn2+2Nd(AsO4)(OH)4,"{""Mn"": 2.0, ""Nd"": 1.0, ""As"": 1.0, ""O"": 8.0, ""H"": 4.0}",461.062,#FFFFFF,orthorhombic,{47},7.508e-09
Revdite,Na16Si16O27(OH)26·28H2O,"{""Na"": 16.0, ""Si"": 16.0, ""O"": 81.0, ""H"": 82.0}",2195.775,#FFFFFF,monoclinic,"{9,35}",2.31286e-07
Rewitzerite,K(H2O)Mn2(Al2Ti)(PO4)4[O(OH)](H2O)10·4H2O,"{""K"": 1.0, ""H"": 31.0, ""O"": 33.0, ""Mn"": 2.0, ""Al"": 2.0, ""Ti"": 1.0, ""P"": 4.0}",933.916,#FFFFFF,monoclinic,{},5e-08
Reyerite,Na2Ca14Al2Si22O58(OH)8·6H2O,"{""Na"": 2.0, ""Ca"": 14.0, ""Al"": 2.0, ""Si"": 22.0, ""O"": 72.0, ""H"": 20.0}",2450.994,#FFFFFF,hexagonal,"{9,40}",1.2328068e-05
Reynoldsite,Pb2Mn4+2O5(CrO4),"{""Pb"": 2.0, ""Mn"": 2.0, ""O"": 9.0, ""Cr"": 1.0}",720.263,#FFFFFF,triclinic,{47},7.508e-09
Reznitskyite,CaMg(VO4)F,"{""Ca"": 1.0, ""Mg"": 1.0, ""V"": 1.0, ""O"": 4.0, ""F"": 1.0}",198.319,#FFFFFF,monoclinic,{45},1.179e-09
Rhabdophane-(Ce),Ce(PO4)·H2O,"{""Ce"": 1.0, ""P"": 1.0, ""O"": 5.0, ""H"": 2.0}",253.105,#FFFFFF,hexagonal,"{23,34,35}",1.7903e-07
Rhabdophane-(La),La(PO4)·H2O,"{""La"": 1.0, ""P"": 1.0, ""O"": 5.0, ""H"": 2.0}",251.895,#FFFFFF,unknown,{34},1.773e-09
Rhabdophane-(Nd),Nd(PO4)·H2O,"{""Nd"": 1.0, ""P"": 1.0, ""O"": 5.0, ""H"": 2.0}",257.225,#FFFFFF,unknown,{34},1.773e-09
Rhabdophane-(Y),Y(PO4)·H2O,"{""Y"": 1.0, ""P"": 1.0, ""O"": 5.0, ""H"": 2.0}",201.891,#FFFFFF,hexagonal,{8},6.45161e-07
Rheniite,ReS2,"{""Re"": 1.0, ""S"": 2.0}",250.33,#A9A9A9,triclinic,{12},1.55e-09
Rhodarsenide,Rh2As,"{""Rh"": 2.0, ""As"": 1.0}",280.742,#808080,orthorhombic,"{26,33,37}",1.26621e-07
Rhodesite,KHCa2Si8O19·5H2O,"{""K"": 1.0, ""H"": 11.0, ""Ca"": 2.0, ""Si"": 8.0, ""O"": 24.0}",738.998,#FFFFFF,orthorhombic,"{7,35}",1.23597e-07
Rhodium,Rh,"{""Rh"": 1.0}",102.91,#FFFFFF,cubic,"{26,36,37,38}",2.41031e-07
Rhodizite,KBe4Al4(B11Be)O28,"{""K"": 1.0, ""Be"": 5.0, ""Al"": 4.0, ""B"": 11.0, ""O"": 28.0}",758.969,#FFFFFF,cubic,{34},1.773e-08
Rhodochrosite,Mn(CO3),"{""Mn"": 1.0, ""C"": 1.0, ""O"": 3.0}",114.946,#FFB6C1,hexagonal,"{6,21,23,32,34,36,47,49}",1.14527e-07
Rhodonite,CaMn3Mn(Si5O15),"{""Ca"": 1.0, ""Mn"": 4.0, ""Si"": 5.0, ""O"": 15.0}",640.24,#FFFFFF,triclinic,"{22,32,40}",4.73457e-07
Rhodplumsite,Rh3Pb2S2,"{""Rh"": 3.0, ""Pb"": 2.0, ""S"": 2.0}",787.25,#708090,hexagonal,"{7,12,26,33}",4.227e-09
Rhomboclase,(H5O2)Fe3+(SO4)2·2H2O,"{""H"": 9.0, ""O"": 12.0, ""Fe"": 1.0, ""S"": 2.0}",321.025,#556B2F,orthorhombic,"{45,47,50,54,56}",6.461e-09
Rhonite,Ca4[Mg8Fe3+2Ti2]O4[Si6Al6O36],"{""Ca"": 4.0, ""Mg"": 8.0, ""Fe"": 2.0, ""Ti"": 2.0, ""O"": 40.0, ""Si"": 6.0, ""Al"": 6.0}",1532.538,#556B2F,triclinic,"{3,8,9,31,35}",2.034165e-06
Ribbeite,Mn2+5(SiO4)2(OH)2,"{""Mn"": 5.0, ""Si"": 2.0, ""O"": 10.0, ""H"": 2.0}",492.866,#FFFFFF,orthorhombic,{32},1.214e-09
Richardsite,Zn2CuGaS4,"{""Zn"": 2.0, ""Cu"": 1.0, ""Ga"": 1.0, ""S"": 4.0}",392.269,#A9A9A9,tetragonal,{12},1.55e-09
Richardsollyite,TlPbAsS3,"{""Tl"": 1.0, ""Pb"": 1.0, ""As"": 1.0, ""S"": 3.0}",582.682,#708090,monoclinic,"{23,33}",3.5427e-08
Richelsdorfite,Ca2Cu5Sb5+(AsO4)4(OH)6Cl·6H2O,"{""Ca"": 2.0, ""Cu"": 5.0, ""Sb"": 1.0, ""As"": 4.0, ""O"": 28.0, ""H"": 18.0, ""Cl"": 1.0}",1320.9,#FFFFFF,monoclinic,"{47,55}",1.88029e-07
Richterite,Na(NaCa)Mg5Si8O22(OH)2,"{""Na"": 2.0, ""Ca"": 1.0, ""Mg"": 5.0, ""Si"": 8.0, ""O"": 24.0, ""H"": 2.0}",818.255,#FFFFFF,monoclinic,"{7,31,35,36}",2.04788e-07
Rickturnerite,Pb7O4[Mg(OH)4](OH)Cl3,"{""Pb"": 7.0, ""O"": 9.0, ""Mg"": 1.0, ""H"": 5.0, ""Cl"": 3.0}",1730.086,#FFFFFF,orthorhombic,{47},1.5015e-07
Riesite,TiO2,"{""Ti"": 1.0, ""O"": 2.0}",79.865,#FFFFFF,monoclinic,{30},1.875e-07
Rietveldite,Fe(UO2)(SO4)2(H2O)5,"{""Fe"": 1.0, ""U"": 1.0, ""O"": 15.0, ""S"": 2.0, ""H"": 10.0}",608.06,#556B2F,orthorhombic,{47},3.003e-09
Rilandite,Cr6SiO11·5H2O (?),"{""Cr"": 6.0, ""Si"": 1.0, ""O"": 16.0, ""H"": 10.0}",606.125,#FFFFFF,unknown,"{47,53}",2.3562e-07
Rimkorolgite,BaMg5(PO4)4·8H2O,"{""Ba"": 1.0, ""Mg"": 5.0, ""P"": 4.0, ""O"": 24.0, ""H"": 16.0}",782.855,#FFFFFF,monoclinic,"{36,47}",1.8451e-08
Ringwoodite,SiMg2O4,"{""Si"": 1.0, ""Mg"": 2.0, ""O"": 4.0}",140.691,#FFFFFF,cubic,"{6,36}",1.08088e-07
Rinkite-(Ce),Ca2(CaCe)Na(NaCa)Ti(Si2O7)2(OF)F2,"{""Ca"": 4.0, ""Ce"": 1.0, ""Na"": 2.0, ""Ti"": 1.0, ""Si"": 4.0, ""O"": 15.0, ""F"": 3.0}",803.598,#FFFFFF,monoclinic,{35},6.89e-10
Rinkite-(Y),Ca2(CaY)Na(NaCa)Ti(Si2O7)2(OF)F2,"{""Ca"": 4.0, ""Y"": 1.0, ""Na"": 2.0, ""Ti"": 1.0, ""Si"": 4.0, ""O"": 15.0, ""F"": 3.0}",752.384,#FFFFFF,monoclinic,{35},6.89e-10
Rinmanite,ZnSb5+(Fe3+2Mg)O7(OH),"{""Zn"": 1.0, ""Sb"": 1.0, ""Fe"": 2.0, ""Mg"": 1.0, ""O"": 8.0, ""H"": 1.0}",452.135,#556B2F,hexagonal,{32},2.4272e-08
Rinneite,K3NaFe2+Cl6,"{""K"": 3.0, ""Na"": 1.0, ""Fe"": 1.0, ""Cl"": 6.0}",408.829,#556B2F,hexagonal,"{25,45}",7.1204e-08
Riomarinaite,Bi(SO4)(OH)·H2O,"{""Bi"": 1.0, ""S"": 1.0, ""O"": 6.0, ""H"": 3.0}",340.058,#FFFFFF,monoclinic,{47},3.003e-09
Riosecoite,Ca2Mg(AsO3OH)3(H2O)2,"{""Ca"": 2.0, ""Mg"": 1.0, ""As"": 3.0, ""O"": 14.0, ""H"": 7.0}",560.269,#FFFFFF,triclinic,{47},1.5015e-07
Riotintoite,Al(SO4)(OH)·3H2O,"{""Al"": 1.0, ""S"": 1.0, ""O"": 8.0, ""H"": 7.0}",194.09,#FFFFFF,triclinic,{47},3.003e-09
Rivadavite,Na6Mg[B6O7(OH)6]4·10H2O,"{""Na"": 6.0, ""Mg"": 1.0, ""B"": 24.0, ""O"": 62.0, ""H"": 44.0}",1457.975,#FFFFFF,monoclinic,{25},4.7619e-08
Riversideite,Ca5Si6O16(OH)2·2H2O,"{""Ca"": 5.0, ""Si"": 6.0, ""O"": 20.0, ""H"": 6.0}",694.928,#FFFFFF,unknown,"{31,51}",1.38079e-07
Robertsite,Ca2Mn3+3O2(PO4)3·3H2O,"{""Ca"": 2.0, ""Mn"": 3.0, ""O"": 17.0, ""P"": 3.0, ""H"": 6.0}",615.923,#FFFFFF,monoclinic,"{21,47,48,52,53}",3.2097e-08
Robinsonite,Pb4Sb6S13,"{""Pb"": 4.0, ""Sb"": 6.0, ""S"": 13.0}",1976.14,#708090,monoclinic,{33},2.51e-10
Rodalquilarite,H3Fe3+2(Te4+O3)4Cl,"{""H"": 3.0, ""Fe"": 2.0, ""Te"": 4.0, ""O"": 12.0, ""Cl"": 1.0}",852.552,#556B2F,triclinic,{47},1.5015e-07
Rodolicoite,Fe3+(PO4),"{""Fe"": 1.0, ""P"": 1.0, ""O"": 4.0}",150.815,#8B4513,hexagonal,"{52,55}",1.7677e-08
Roeblingite,Ca6Mn2+Pb2(Si3O9)2(SO4)2(OH)2·4H2O,"{""Ca"": 6.0, ""Mn"": 1.0, ""Pb"": 2.0, ""Si"": 6.0, ""O"": 32.0, ""S"": 2.0, ""H"": 10.0}",1464.484,#FFFFFF,monoclinic,"{32,47}",3.488e-09
Roedderite,KNaMg2(Mg3Si12)O30,"{""K"": 1.0, ""Na"": 1.0, ""Mg"": 5.0, ""Si"": 12.0, ""O"": 30.0}",1000.603,#FFFFFF,hexagonal,"{4,5,6,26}",5.30308e-07