name,formula,elements,density,color,crystal,pm_ids,gacha_weight
Metavariscite,Al(PO4)·2H2O,"{""Al"": 1.0, ""P"": 1.0, ""O"": 6.0, ""H"": 4.0}",157.982,#FFFFFF,monoclinic,"{47,57}",2047.0
Metavauxite,Fe2+Al2(PO4)2(OH)2·8H2O,"{""Fe"": 1.0, ""Al"": 2.0, ""P"": 2.0, ""O"": 18.0, ""H"": 18.0}",477.883,#556B2F,monoclinic,{47},1998.0
Metavivianite,Fe2+Fe3+2(PO4)2(OH)2·6H2O,"{""Fe"": 3.0, ""P"": 2.0, ""O"": 16.0, ""H"": 14.0}",499.579,#556B2F,triclinic,"{24,47}",2072.0
Metavoltine,K2Na6Fe2+Fe3+6O2(SO4)12·18H2O,"{""K"": 2.0, ""Na"": 6.0, ""Fe"": 7.0, ""O"": 68.0, ""S"": 12.0, ""H"": 36.0}",2115.991,#556B2F,hexagonal,"{45,47,50,54,55}",3193.0
Metazellerite,Ca(UO2)(CO3)2·3H2O,"{""Ca"": 1.0, ""U"": 1.0, ""O"": 11.0, ""C"": 2.0, ""H"": 6.0}",484.167,#FFFFFF,orthorhombic,{47},1998.0
Metazeunerite,Cu(UO2)2(AsO4)2·8H2O,"{""Cu"": 1.0, ""U"": 2.0, ""O"": 20.0, ""As"": 2.0, ""H"": 16.0}",1025.558,#FFFFFF,tetragonal,{47},1998.0
Meyerhofferite,CaB3O3(OH)5·H2O,"{""Ca"": 1.0, ""B"": 3.0, ""O"": 9.0, ""H"": 7.0}",223.555,#FFFFFF,triclinic,{25},210.0
Meymacite,WO3·2H2O,"{""W"": 1.0, ""O"": 5.0, ""H"": 4.0}",267.867,#FFFFFF,unknown,{47},1998.0
Meyrowitzite,Ca(UO2)(CO3)2·5H2O,"{""Ca"": 1.0, ""U"": 1.0, ""O"": 13.0, ""C"": 2.0, ""H"": 10.0}",520.197,#FFFFFF,monoclinic,{47},1998.0
Mgriite,Cu3AsSe3,"{""Cu"": 3.0, ""As"": 1.0, ""Se"": 3.0}",502.473,#00BFFF,cubic,{33},797.0
Miargyrite,AgSbS2,"{""Ag"": 1.0, ""Sb"": 1.0, ""S"": 2.0}",293.75,#A9A9A9,monoclinic,{33},797.0
Miassite,Rh17S15,"{""Rh"": 17.0, ""S"": 15.0}",2230.37,#A9A9A9,cubic,"{12,26,33,37}",1311.0
Michenerite,PdBiTe,"{""Pd"": 1.0, ""Bi"": 1.0, ""Te"": 1.0}",443.0,#D2B48C,cubic,"{33,37}",932.0
Microcline,K(AlSi3O8),"{""K"": 1.0, ""Al"": 1.0, ""Si"": 3.0, ""O"": 8.0}",278.327,#FFFFFF,triclinic,"{19,24,26,34,35}",1757.0
Midbarite,Ca3Mg2(V2Si)O12,"{""Ca"": 3.0, ""Mg"": 2.0, ""V"": 2.0, ""Si"": 1.0, ""O"": 12.0}",490.801,#FFFFFF,cubic,{},1.0
Middlebackite,Cu2C2O4(OH)2,"{""Cu"": 2.0, ""C"": 2.0, ""O"": 6.0, ""H"": 2.0}",249.124,#FFFFFF,monoclinic,{53},117.0
Miersite,AgI,"{""Ag"": 1.0, ""I"": 1.0}",234.77,#C0C0C0,cubic,{47},1998.0
Miessiite,Pd11Te2Se2,"{""Pd"": 11.0, ""Te"": 2.0, ""Se"": 2.0}",1583.762,#FFFFFF,cubic,"{26,33,37}",1182.0
Miharaite,PbCu4FeBiS6,"{""Pb"": 1.0, ""Cu"": 4.0, ""Fe"": 1.0, ""Bi"": 1.0, ""S"": 6.0}",918.569,#DAA520,orthorhombic,{33},797.0
Mikasaite,Fe3+2(SO4)3,"{""Fe"": 2.0, ""S"": 3.0, ""O"": 12.0}",399.858,#8B4513,hexagonal,{54},234.0
Mikecoxite,[CHg4]OCl2,"{""C"": 1.0, ""Hg"": 4.0, ""O"": 1.0, ""Cl"": 2.0}",901.27,#FFFFFF,monoclinic,{53},117.0
Mikehowardite,Fe3+4(V5+O4)4(H2O)2·H2O,"{""Fe"": 4.0, ""V"": 4.0, ""O"": 19.0, ""H"": 6.0}",737.177,#556B2F,triclinic,{47},1998.0
Milarite,KCa2(Be2AlSi12)O30·H2O,"{""K"": 1.0, ""Ca"": 2.0, ""Be"": 2.0, ""Al"": 1.0, ""Si"": 12.0, ""O"": 31.0, ""H"": 2.0}",999.2654,#FFFFFF,hexagonal,"{19,23,34}",1105.0
Milkovoite,Cu4O(PO4)(AsO4),"{""Cu"": 4.0, ""O"": 9.0, ""P"": 1.0, ""As"": 1.0}",504.071,#FFFFFF,orthorhombic,{47},1998.0
Millerite,NiS,"{""Ni"": 1.0, ""S"": 1.0}",90.753,#A9A9A9,hexagonal,"{11,12,13,15,33,36,37,38,50}",1868.0
Millisite,NaCaAl6(PO4)4(OH)9·3H2O,"{""Na"": 1.0, ""Ca"": 1.0, ""Al"": 6.0, ""P"": 4.0, ""O"": 28.0, ""H"": 15.0}",811.948,#FFFFFF,unknown,"{21,22,47}",2324.0
Millosevichite,Al2(SO4)3,"{""Al"": 2.0, ""S"": 3.0, ""O"": 12.0}",342.132,#FFFF00,hexagonal,"{45,50,54}",931.0
Millsite,CuTeO3·2H2O,"{""Cu"": 1.0, ""Te"": 1.0, ""O"": 5.0, ""H"": 4.0}",275.173,#FFFFFF,monoclinic,{47},1998.0
Milotaite,PdSbSe,"{""Pd"": 1.0, ""Sb"": 1.0, ""Se"": 1.0}",307.151,#A9A9A9,cubic,{33},797.0
Mimetite,Pb5(AsO4)3Cl,"{""Pb"": 5.0, ""As"": 3.0, ""O"": 12.0, ""Cl"": 1.0}",1488.204,#FFFFFF,monoclinic,"{45,47}",2422.0
Minakawaite,RhSb,"{""Rh"": 1.0, ""Sb"": 1.0}",224.67,#A9A9A9,orthorhombic,{33},797.0
Minasragrite,V4+O(SO4)·5H2O,"{""V"": 1.0, ""O"": 10.0, ""S"": 1.0, ""H"": 10.0}",253.072,#FFFFFF,monoclinic,"{47,53}",2115.0
Mineevite-(Y),Na25BaY2(CO3)11(HCO3)4(SO4)2F2Cl,"{""Na"": 25.0, ""Ba"": 1.0, ""Y"": 2.0, ""C"": 15.0, ""O"": 53.0, ""H"": 4.0, ""S"": 2.0, ""F"": 2.0, ""Cl"": 1.0}",2059.602,#FFFFFF,hexagonal,"{35,47}",2724.0
Minguzzite,K3Fe3+(C2O4)3·3H2O,"{""K"": 3.0, ""Fe"": 1.0, ""C"": 6.0, ""O"": 15.0, ""H"": 6.0}",491.238,#556B2F,monoclinic,{53},117.0
Minium,Pb2+2Pb4+O4,"{""Pb"": 3.0, ""O"": 4.0}",685.596,#FFFFFF,orthorhombic,"{47,55,56}",2405.0
Minjiangite,BaBe2(PO4)2,"{""Ba"": 1.0, ""Be"": 2.0, ""P"": 2.0, ""O"": 8.0}",345.2944,#FFFFFF,hexagonal,{34},564.0
Minnesotaite,Fe2+3Si4O10(OH)2,"{""Fe"": 3.0, ""Si"": 4.0, ""O"": 12.0, ""H"": 2.0}",473.879,#556B2F,triclinic,{40},319.0
Minyulite,KAl2(PO4)2F·4H2O,"{""K"": 1.0, ""Al"": 2.0, ""P"": 2.0, ""O"": 12.0, ""F"": 1.0, ""H"": 8.0}",374.06,#FFFFFF,orthorhombic,"{31,47}",2354.0
Mirabilite,Na2(SO4)·10H2O,"{""Na"": 2.0, ""S"": 1.0, ""O"": 14.0, ""H"": 20.0}",322.186,#FFFFFF,monoclinic,"{21,25,45,46,47,55}",3027.0
Mirnyite,SrZr4+(Ti4+12Cr3+6)Mg2O38,"{""Sr"": 1.0, ""Zr"": 1.0, ""Ti"": 12.0, ""Cr"": 6.0, ""Mg"": 2.0, ""O"": 38.0}",1721.796,#FFFFFF,hexagonal,{7},123.0
Misenite,K8(SO4)(SO3OH)6,"{""K"": 8.0, ""S"": 7.0, ""O"": 28.0, ""H"": 6.0}",991.224,#FFFFFF,unknown,{45},424.0
Mitridatite,Ca2Fe3+3O2(PO4)3·3H2O,"{""Ca"": 2.0, ""Fe"": 3.0, ""O"": 17.0, ""P"": 3.0, ""H"": 6.0}",618.644,#556B2F,monoclinic,"{21,47,48,52,53}",2337.0
Mitrofanovite,Pt3Te4,"{""Pt"": 3.0, ""Te"": 4.0}",1095.64,#FFFFFF,hexagonal,{37},135.0
Mitscherlichite,K2CuCl4·2H2O,"{""K"": 2.0, ""Cu"": 1.0, ""Cl"": 4.0, ""H"": 4.0, ""O"": 2.0}",319.572,#FFFFFF,tetragonal,"{45,47}",2422.0
Mixite,Cu6Bi(AsO4)3(OH)6·3H2O,"{""Cu"": 6.0, ""Bi"": 1.0, ""As"": 3.0, ""O"": 21.0, ""H"": 12.0}",1163.097,#FFFFFF,hexagonal,{47},1998.0
Mizraite-(Ce),Ce(Al11Mg)O19,"{""Ce"": 1.0, ""Al"": 11.0, ""Mg"": 1.0, ""O"": 19.0}",765.208,#FFFFFF,hexagonal,{51},128.0
Moabite,NiFe3+(PO4)O,"{""Ni"": 1.0, ""Fe"": 1.0, ""P"": 1.0, ""O"": 5.0}",225.507,#556B2F,orthorhombic,{51},128.0
Moctezumite,Pb(UO2)(Te4+O3)2,"{""Pb"": 1.0, ""U"": 1.0, ""O"": 8.0, ""Te"": 2.0}",828.422,#FFFFFF,monoclinic,{47},1998.0
Modderite,CoAs,"{""Co"": 1.0, ""As"": 1.0}",133.855,#4169E1,orthorhombic,"{26,33}",1047.0
Moeloite,Pb6Sb6S14(S)3,"{""Pb"": 6.0, ""Sb"": 6.0, ""S"": 17.0}",2518.78,#708090,orthorhombic,{33},797.0
Mohnite,(NH4)K2Na(SO4)2,"{""N"": 1.0, ""H"": 4.0, ""K"": 2.0, ""Na"": 1.0, ""S"": 2.0, ""O"": 8.0}",311.337,#FFFFFF,hexagonal,"{49,52}",149.0
Mohrite,(NH4)2Fe2+(SO4)2·6H2O,"{""N"": 2.0, ""H"": 20.0, ""Fe"": 1.0, ""S"": 2.0, ""O"": 14.0}",392.125,#556B2F,monoclinic,{45},424.0
Moiraite,Pb12Sb8As8S36,"{""Pb"": 12.0, ""Sb"": 8.0, ""As"": 8.0, ""S"": 36.0}",5214.016,#708090,triclinic,{},1.0
Moissanite,SiC,"{""Si"": 1.0, ""C"": 1.0}",40.096,#FFFFFF,cubic,"{1,7,26,29,35,36,38,39}",1597.0
Mojaveite,Cu6[Te6+O4(OH)2](OH)7Cl,"{""Cu"": 6.0, ""Te"": 1.0, ""O"": 13.0, ""H"": 9.0, ""Cl"": 1.0}",761.385,#FFFFFF,hexagonal,"{47,55}",2262.0
Molinelloite,Cu(H2O)(OH)V4+O(V5+O4),"{""Cu"": 1.0, ""H"": 3.0, ""O"": 7.0, ""V"": 2.0}",280.447,#FFFFFF,triclinic,{47},1998.0
Moluranite,H4U4+(UO2)3(MoO4)7·18H2O,"{""H"": 40.0, ""U"": 4.0, ""O"": 52.0, ""Mo"": 7.0}",2496.038,#FFFFFF,unknown,{47},1998.0
Molybdenite,MoS2,"{""Mo"": 1.0, ""S"": 2.0}",160.07,#A9A9A9,hexagonal,"{6,12,19,31,33,34,36,37,38,51}",2856.0
Molybdite,MoO3,"{""Mo"": 1.0, ""O"": 3.0}",143.947,#FFFFFF,orthorhombic,"{45,47,50,54}",2929.0
Molybdofornacite,CuPb2(MoO4)(AsO4)(OH),"{""Cu"": 1.0, ""Pb"": 2.0, ""Mo"": 1.0, ""O"": 9.0, ""As"": 1.0, ""H"": 1.0}",793.817,#FFFFFF,monoclinic,{47},1998.0
Molybdomenite,PbSe4+O3,"{""Pb"": 1.0, ""Se"": 1.0, ""O"": 3.0}",334.168,#FFFFFF,monoclinic,{47},1998.0
Molybdophyllite,Pb8Mg9[Si10O28(OH)8O2(CO3)3]·H2O,"{""Pb"": 8.0, ""Mg"": 9.0, ""Si"": 10.0, ""O"": 48.0, ""H"": 10.0, ""C"": 3.0}",2971.26,#FFFFFF,monoclinic,"{31,47}",2354.0
Molysite,FeCl3,"{""Fe"": 1.0, ""Cl"": 3.0}",162.195,#8B4513,hexagonal,"{45,50,54}",931.0
Monazite-(Ce),Ce(PO4),"{""Ce"": 1.0, ""P"": 1.0, ""O"": 4.0}",235.09,#FFFFFF,monoclinic,"{9,19,23,26,34,36,40}",2092.0
Monazite-(Gd),Gd(PO4),"{""Gd"": 1.0, ""P"": 1.0, ""O"": 4.0}",252.22,#FFFFFF,monoclinic,{},1.0
Monazite-(La),La(PO4),"{""La"": 1.0, ""P"": 1.0, ""O"": 4.0}",233.88,#FFFFFF,monoclinic,"{9,19,23,26,34,36,40}",2092.0
Monazite-(Nd),Nd(PO4),"{""Nd"": 1.0, ""P"": 1.0, ""O"": 4.0}",239.21,#FFFFFF,monoclinic,"{9,19,23,26,34,36,40}",2092.0
Monazite-(Sm),Sm(PO4),"{""Sm"": 1.0, ""P"": 1.0, ""O"": 4.0}",245.33,#FFFFFF,monoclinic,"{23,34}",962.0
Monchetundraite,Pd2NiTe2,"{""Pd"": 2.0, ""Ni"": 1.0, ""Te"": 2.0}",526.733,#7FFF00,orthorhombic,{33},797.0
Monetite,Ca(PO3OH),"{""Ca"": 1.0, ""P"": 1.0, ""O"": 4.0, ""H"": 1.0}",136.056,#FFFFFF,triclinic,"{47,49,52}",2147.0
Mongolite,Ca4Nb6Si5O24(OH)10·6H2O,"{""Ca"": 4.0, ""Nb"": 6.0, ""Si"": 5.0, ""O"": 40.0, ""H"": 22.0}",1520.309,#FFFFFF,tetragonal,"{35,47}",2724.0
Monimolite,Pb2Sb5+2O7,"{""Pb"": 2.0, ""Sb"": 2.0, ""O"": 7.0}",769.913,#A9A9A9,unknown,"{23,47}",2396.0
Monipite,MoNiP,"{""Mo"": 1.0, ""Ni"": 1.0, ""P"": 1.0}",185.617,#7FFF00,hexagonal,{3},48.0
Monohydrocalcite,Ca(CO3)·H2O,"{""Ca"": 1.0, ""C"": 1.0, ""O"": 4.0, ""H"": 2.0}",118.101,#FFFFFF,hexagonal,"{21,24,25,31,49,53}",913.0
Montebrasite,LiAl(PO4)(OH),"{""Li"": 1.0, ""Al"": 1.0, ""P"": 1.0, ""O"": 5.0, ""H"": 1.0}",145.899,#FFFFFF,triclinic,"{34,47}",2562.0
Monteneveite,Ca3Sb5+2(Fe3+2Fe2+)O12,"{""Ca"": 3.0, ""Sb"": 2.0, ""Fe"": 3.0, ""O"": 12.0}",723.277,#556B2F,cubic,{31},356.0
Monteponite,CdO,"{""Cd"": 1.0, ""O"": 1.0}",128.409,#FFFFFF,cubic,"{45,47,55}",2686.0
Monteregianite-(Y),KNa2YSi8O19·5H2O,"{""K"": 1.0, ""Na"": 2.0, ""Y"": 1.0, ""Si"": 8.0, ""O"": 24.0, ""H"": 10.0}",792.72,#FFFFFF,monoclinic,{35},726.0
Montesommaite,K9(Si23Al9)O64·10H2O,"{""K"": 9.0, ""Si"": 23.0, ""Al"": 9.0, ""O"": 74.0, ""H"": 20.0}",2444.761,#FFFFFF,tetragonal,"{9,10}",234.0
Montetrisaite,Cu6(SO4)(OH)10·2H2O,"{""Cu"": 6.0, ""S"": 1.0, ""O"": 16.0, ""H"": 14.0}",683.432,#FFFFFF,orthorhombic,{47},1998.0
Montgomeryite,Ca4MgAl4(PO4)6(OH)4·12H2O,"{""Ca"": 4.0, ""Mg"": 1.0, ""Al"": 4.0, ""P"": 6.0, ""O"": 40.0, ""H"": 28.0}",1146.573,#FFFFFF,monoclinic,{21},79.0
Monticellite,CaMg(SiO4),"{""Ca"": 1.0, ""Mg"": 1.0, ""Si"": 1.0, ""O"": 4.0}",156.464,#FFFFFF,orthorhombic,"{6,7,31,35,40,51}",1857.0
Montpelvouxite,AgPb16Sb27As18S84,"{""Ag"": 1.0, ""Pb"": 16.0, ""Sb"": 27.0, ""As"": 18.0, ""S"": 84.0}",10752.226,#708090,triclinic,{},1.0
Montroyalite,Sr4Al8(CO3)3(OH)26·10H2O,"{""Sr"": 4.0, ""Al"": 8.0, ""C"": 3.0, ""O"": 45.0, ""H"": 46.0}",1368.692,#FFFFFF,unknown,{36},291.0
Montroydite,HgO,"{""Hg"": 1.0, ""O"": 1.0}",216.589,#FFFFFF,orthorhombic,{47},1998.0
Mooihoekite,Cu9Fe9S16,"{""Cu"": 9.0, ""Fe"": 9.0, ""S"": 16.0}",1587.479,#DAA520,tetragonal,"{15,33,37}",964.0
Mooreite,Mg15(SO4)2(OH)26·8H2O,"{""Mg"": 15.0, ""S"": 2.0, ""O"": 42.0, ""H"": 42.0}",1142.989,#FFFFFF,monoclinic,"{32,47}",2410.0
Moorhouseite,Co(SO4)·6H2O,"{""Co"": 1.0, ""S"": 1.0, ""O"": 10.0, ""H"": 12.0}",263.079,#FFFFFF,monoclinic,"{47,55}",2262.0
Mopungite,NaSb5+(OH)6,"{""Na"": 1.0, ""Sb"": 1.0, ""O"": 6.0, ""H"": 6.0}",246.792,#FFFFFF,tetragonal,"{47,57}",2047.0
Moraesite,Be2(PO4)(OH)·4H2O,"{""Be"": 2.0, ""P"": 1.0, ""O"": 9.0, ""H"": 9.0}",202.0614,#FFFFFF,monoclinic,{22},247.0
Moragite,Ca3TiSi2(Al2Si)O14,"{""Ca"": 3.0, ""Ti"": 1.0, ""Si"": 3.0, ""Al"": 2.0, ""O"": 14.0}",530.306,#FFFFFF,hexagonal,{},1.0
Moraskoite,Na2Mg(PO4)F,"{""Na"": 2.0, ""Mg"": 1.0, ""P"": 1.0, ""O"": 4.0, ""F"": 1.0}",184.253,#FFFFFF,orthorhombic,{5},94.0
Moreauite,Al3(UO2)(PO4)3(OH)2·13H2O,"{""Al"": 3.0, ""U"": 1.0, ""O"": 29.0, ""P"": 3.0, ""H"": 28.0}",904.093,#FFFFFF,monoclinic,{22},247.0
Morelandite,Ca2Ba3(AsO4)3Cl,"{""Ca"": 2.0, ""Ba"": 3.0, ""As"": 3.0, ""O"": 12.0, ""Cl"": 1.0}",944.35,#FFFFFF,hexagonal,{32},412.0
Morenosite,Ni(SO4)·7H2O,"{""Ni"": 1.0, ""S"": 1.0, ""O"": 11.0, ""H"": 14.0}",280.854,#FFFFFF,orthorhombic,{47},1998.0
Morimotoite,Ca3(TiFe2+)(SiO4)3,"{""Ca"": 3.0, ""Ti"": 1.0, ""Fe"": 1.0, ""Si"": 3.0, ""O"": 12.0}",500.189,#556B2F,cubic,{35},726.0
Morinite,NaCa2Al2(PO4)2(OH)F4·2H2O,"{""Na"": 1.0, ""Ca"": 2.0, ""Al"": 2.0, ""P"": 2.0, ""O"": 11.0, ""H"": 5.0, ""F"": 4.0}",476.079,#FFFFFF,monoclinic,"{22,34}",811.0
Morrisonite,Ca11(As3+V4+2V5+10As5+6O51)2·78H2O,"{""Ca"": 11.0, ""As"": 14.0, ""V"": 24.0, ""O"": 180.0, ""H"": 156.0}",5749.442,#FFFFFF,monoclinic,{47},1998.0
Moschelite,HgI,"{""Hg"": 1.0, ""I"": 1.0}",327.49,#FFFFFF,tetragonal,"{33,47,50}",3068.0
Moschellandsbergite,Ag2Hg3,"{""Ag"": 2.0, ""Hg"": 3.0}",817.51,#C0C0C0,cubic,{33},797.0
Mosesite,(Hg2N)Cl,"{""Hg"": 2.0, ""N"": 1.0, ""Cl"": 1.0}",450.637,#FFFFFF,cubic,{33},797.0
Moskvinite-(Y),Na2KYSi6O15,"{""Na"": 2.0, ""K"": 1.0, ""Y"": 1.0, ""Si"": 6.0, ""O"": 15.0}",582.479,#FFFFFF,orthorhombic,{35},726.0
Mossbauerite,Fe3+6O4(OH)8(CO3)·3H2O,"{""Fe"": 6.0, ""O"": 18.0, ""H"": 14.0, ""C"": 1.0}",649.175,#556B2F,hexagonal,"{24,47}",2072.0
Mottramite,PbCu(VO4)(OH),"{""Pb"": 1.0, ""Cu"": 1.0, ""V"": 1.0, ""O"": 5.0, ""H"": 1.0}",402.691,#FFFFFF,orthorhombic,"{32,47}",2410.0
Motukoreaite,Mg6Al3(OH)18[Na(H2O)6](SO4)2·6H2O,"{""Mg"": 6.0, ""Al"": 3.0, ""O"": 38.0, ""H"": 42.0, ""Na"": 1.0, ""S"": 2.0}",964.184,#FFFFFF,hexagonal,"{8,10}",200.0
Mounanaite,PbFe3+2(VO4)2(OH)2,"{""Pb"": 1.0, ""Fe"": 2.0, ""V"": 2.0, ""O"": 10.0, ""H"": 2.0}",582.78,#556B2F,monoclinic,{47},1998.0
Mountainite,KNa2Ca2[Si8O19(OH)]·6H2O,"{""K"": 1.0, ""Na"": 2.0, ""Ca"": 2.0, ""Si"": 8.0, ""O"": 26.0, ""H"": 13.0}",818.992,#FFFFFF,monoclinic,"{7,35}",849.0
Mourite,(UO2)(Mo6+)5O16·5H2O,"{""U"": 1.0, ""O"": 23.0, ""Mo"": 5.0, ""H"": 10.0}",1095.837,#FFFFFF,monoclinic,{47},1998.0
Moxuanxueite,NaCa6Zr(Si2O7)2OF3,"{""Na"": 1.0, ""Ca"": 6.0, ""Zr"": 1.0, ""Si"": 4.0, ""O"": 15.0, ""F"": 3.0}",764.001,#FFFFFF,triclinic,{31},356.0
Moydite-(Y),YB(OH)4(CO3),"{""Y"": 1.0, ""B"": 1.0, ""O"": 7.0, ""H"": 4.0, ""C"": 1.0}",227.752,#FFFFFF,orthorhombic,{22},247.0
Mozgovaite,PbBi4S7,"{""Pb"": 1.0, ""Bi"": 4.0, ""S"": 7.0}",1267.54,#708090,orthorhombic,"{11,12,33}",962.0
Mpororoite,Al2O(WO4)2·6H2O,"{""Al"": 2.0, ""O"": 15.0, ""W"": 2.0, ""H"": 12.0}",673.725,#FFFFFF,triclinic,{47},1998.0
Mrazekite,Bi2Cu3(PO4)2O2(OH)2·2H2O,"{""Bi"": 2.0, ""Cu"": 3.0, ""P"": 2.0, ""O"": 14.0, ""H"": 6.0}",900.58,#FFFFFF,monoclinic,{47},1998.0
Mroseite,CaTe4+O2(CO3),"{""Ca"": 1.0, ""Te"": 1.0, ""O"": 5.0, ""C"": 1.0}",259.684,#FFFFFF,orthorhombic,"{23,33}",1195.0
Muckeite,CuNiBiS3,"{""Cu"": 1.0, ""Ni"": 1.0, ""Bi"": 1.0, ""S"": 3.0}",427.399,#A9A9A9,orthorhombic,{33},797.0
Mukhinite,Ca2(Al2V3+)[Si2O7][SiO4]O(OH),"{""Ca"": 2.0, ""Al"": 2.0, ""V"": 1.0, ""Si"": 3.0, ""O"": 13.0, ""H"": 1.0}",478.312,#FFFFFF,monoclinic,{32},412.0
Mullerite,Pb2Fe3+(Te6+O6)Cl,"{""Pb"": 2.0, ""Fe"": 1.0, ""Te"": 1.0, ""O"": 6.0, ""Cl"": 1.0}",729.289,#556B2F,hexagonal,{47},1998.0
Munakataite,Pb2Cu2(Se4+O3)(SO4)(OH)4,"{""Pb"": 2.0, ""Cu"": 2.0, ""Se"": 1.0, ""O"": 11.0, ""S"": 1.0, ""H"": 4.0}",832.544,#FFFFFF,monoclinic,{47},1998.0
Mundrabillaite,(NH4)2Ca(PO3OH)2·H2O,"{""N"": 2.0, ""H"": 12.0, ""Ca"": 1.0, ""P"": 2.0, ""O"": 9.0}",286.127,#FFFFFF,monoclinic,{52},72.0
Muonionalustaite,Ni3(OH)4Cl2·4H2O,"{""Ni"": 3.0, ""O"": 8.0, ""H"": 12.0, ""Cl"": 2.0}",387.067,#FFFFFF,monoclinic,{47},1998.0
Murakamiite,Ca2LiSi3O8(OH),"{""Ca"": 2.0, ""Li"": 1.0, ""Si"": 3.0, ""O"": 9.0, ""H"": 1.0}",316.35,#FFFFFF,triclinic,{35},726.0
Murashkoite,FeP,"{""Fe"": 1.0, ""P"": 1.0}",86.819,#8B4513,orthorhombic,"{50,51,54}",635.0
Murchisite,Cr5S6,"{""Cr"": 5.0, ""S"": 6.0}",452.34,#A9A9A9,hexagonal,{6},205.0
Murdochite,Cu12Pb2O15Cl2,"{""Cu"": 12.0, ""Pb"": 2.0, ""O"": 15.0, ""Cl"": 2.0}",1487.837,#FFFFFF,cubic,{47},1998.0
Murmanite,Na2Ti2Na2Ti2(Si2O7)2O4(H2O)4,"{""Na"": 4.0, ""Ti"": 4.0, ""Si"": 4.0, ""O"": 22.0, ""H"": 8.0}",755.81,#FFFFFF,triclinic,"{35,47}",2724.0
Murphyite,Pb(Te6+O4),"{""Pb"": 1.0, ""Te"": 1.0, ""O"": 4.0}",398.796,#FFFFFF,unknown,{47},1998.0
Muscovite,KAl2(Si3Al)O10(OH)2,"{""K"": 1.0, ""Al"": 3.0, ""Si"": 3.0, ""O"": 12.0, ""H"": 2.0}",398.303,#FFFFFF,hexagonal,"{16,19,20,23,26,34,40,43,50}",2084.0
Muskoxite,Mg7Fe3+4(OH)26·H2O (?),"{""Mg"": 7.0, ""Fe"": 4.0, ""O"": 27.0, ""H"": 28.0}",853.712,#556B2F,unknown,"{13,37}",202.0
Muthmannite,AuAgTe2,"{""Au"": 1.0, ""Ag"": 1.0, ""Te"": 2.0}",560.04,#FFD700,monoclinic,{33},797.0
Mutinaite,Na3Ca4Al11Si85O192·60H2O,"{""Na"": 3.0, ""Ca"": 4.0, ""Al"": 11.0, ""Si"": 85.0, ""O"": 252.0, ""H"": 120.0}",7066.017,#FFFFFF,orthorhombic,{10},107.0
Naalasite,NaAl(AsO3OH)2·H2O,"{""Na"": 1.0, ""Al"": 1.0, ""As"": 2.0, ""O"": 9.0, ""H"": 4.0}",347.839,#FFFFFF,hexagonal,{},1.0
Nabalamprophyllite,(BaNa)Ti2Na3Ti(Si2O7)2O2(OH)2,"{""Ba"": 1.0, ""Na"": 4.0, ""Ti"": 3.0, ""Si"": 4.0, ""O"": 18.0, ""H"": 2.0}",775.229,#FFFFFF,orthorhombic,{35},726.0
Nabaphite,NaBa(PO4)·9H2O,"{""Na"": 1.0, ""Ba"": 1.0, ""P"": 1.0, ""O"": 13.0, ""H"": 18.0}",417.425,#FFFFFF,cubic,{22},247.0
Nabateaite,Fe2P2O7,"{""Fe"": 2.0, ""P"": 2.0, ""O"": 7.0}",285.631,#8B4513,triclinic,{51},128.0
Nabesite,Na2BeSi4O10·4H2O,"{""Na"": 2.0, ""Be"": 1.0, ""Si"": 4.0, ""O"": 14.0, ""H"": 8.0}",399.3822,#FFFFFF,orthorhombic,{35},726.0
Nabimusaite,KCa12(SiO4)4(SO4)2O2F,"{""K"": 1.0, ""Ca"": 12.0, ""Si"": 4.0, ""O"": 26.0, ""S"": 2.0, ""F"": 1.0}",1131.466,#FFFFFF,hexagonal,{51},128.0
Nabokoite,Cu7Te4+O4(SO4)5·KCl,"{""Cu"": 7.0, ""Te"": 1.0, ""O"": 24.0, ""S"": 5.0, ""K"": 1.0, ""Cl"": 1.0}",1191.246,#FFFFFF,tetragonal,{45},424.0
Nacaphite,Na2Ca(PO4)F,"{""Na"": 2.0, ""Ca"": 1.0, ""P"": 1.0, ""O"": 4.0, ""F"": 1.0}",200.026,#FFFFFF,triclinic,{35},726.0
Nacareniobsite-(Ce),Ca2(CaCe)Na3Nb(Si2O7)2(OF)F2,"{""Ca"": 3.0, ""Ce"": 1.0, ""Na"": 3.0, ""Nb"": 1.0, ""Si"": 4.0, ""O"": 15.0, ""F"": 3.0}",831.549,#FFFFFF,monoclinic,{35},726.0
Nacareniobsite-(Nd),Ca2(CaNd)Na3Nb(Si2O7)2(OF)F2,"{""Ca"": 3.0, ""Nd"": 1.0, ""Na"": 3.0, ""Nb"": 1.0, ""Si"": 4.0, ""O"": 15.0, ""F"": 3.0}",835.669,#FFFFFF,monoclinic,{},1.0
Nacareniobsite-(Y),Na3Ca3YNb(Si2O7)2OF3,"{""Na"": 3.0, ""Ca"": 3.0, ""Y"": 1.0, ""Nb"": 1.0, ""Si"": 4.0, ""O"": 15.0, ""F"": 3.0}",780.335,#FFFFFF,monoclinic,{},1.0
Nacrite,Al2Si2O5(OH)4,"{""Al"": 2.0, ""Si"": 2.0, ""O"": 9.0, ""H"": 4.0}",258.157,#FFFFFF,monoclinic,"{22,24,28,40,43}",659.0
Nadorite,PbSb3+O2Cl,"{""Pb"": 1.0, ""Sb"": 1.0, ""O"": 2.0, ""Cl"": 1.0}",396.408,#FFFFFF,orthorhombic,"{47,57}",2047.0
Nafeasite,Na3Fe3+3(AsO3OH)6·3H2O,"{""Na"": 3.0, ""Fe"": 3.0, ""As"": 6.0, ""O"": 27.0, ""H"": 12.0}",1130.106,#556B2F,monoclinic,{47},1998.0
Nafertisite,Na3Fe2+10Ti2(Si6O17)2O2(OH)6F(H2O)2,"{""Na"": 3.0, ""Fe"": 10.0, ""Ti"": 2.0, ""Si"": 12.0, ""O"": 44.0, ""H"": 10.0, ""F"": 1.0}",1793.208,#556B2F,monoclinic,"{22,35}",973.0
Nagelschmidtite,Ca7(SiO4)2(PO4)2,"{""Ca"": 7.0, ""Si"": 2.0, ""O"": 16.0, ""P"": 2.0}",654.648,#FFFFFF,hexagonal,"{26,51}",378.0
Nahcolite,NaH(CO3),"{""Na"": 1.0, ""H"": 1.0, ""C"": 1.0, ""O"": 3.0}",84.006,#FFFFFF,monoclinic,"{14,35,36,56}",1221.0
Nahpoite,Na2(PO3OH),"{""Na"": 2.0, ""P"": 1.0, ""O"": 4.0, ""H"": 1.0}",141.958,#FFFFFF,monoclinic,"{35,47}",2724.0
Nakauriite,Cu8(SO4)4(CO3)(OH)6·48H2O,"{""Cu"": 8.0, ""S"": 4.0, ""O"": 73.0, ""C"": 1.0, ""H"": 102.0}",1919.362,#FFFFFF,orthorhombic,"{13,47}",2065.0
Nakkaalaaqite,K2[Na3Ca]LiCa2Ti2Be4Si12O38,"{""K"": 2.0, ""Na"": 3.0, ""Ca"": 3.0, ""Li"": 1.0, ""Ti"": 2.0, ""Be"": 4.0, ""Si"": 12.0, ""O"": 38.0}",1351.1048,#FFFFFF,orthorhombic,{35},726.0
Naldrettite,Pd2Sb,"{""Pd"": 2.0, ""Sb"": 1.0}",334.6,#A9A9A9,orthorhombic,"{33,37}",932.0
Nalipoite,NaLi2(PO4),"{""Na"": 1.0, ""Li"": 2.0, ""P"": 1.0, ""O"": 4.0}",131.84,#FFFFFF,orthorhombic,"{9,35}",853.0
Nalivkinite,Li2NaFe2+7Ti2(Si4O12)2O2(OH)4F(H2O)2,"{""Li"": 2.0, ""Na"": 1.0, ""Fe"": 7.0, ""Ti"": 2.0, ""Si"": 8.0, ""O"": 32.0, ""H"": 8.0, ""F"": 1.0}",1287.229,#556B2F,triclinic,{35},726.0
Namibite,Cu(BiO)2(VO4)(OH),"{""Cu"": 1.0, ""Bi"": 2.0, ""O"": 7.0, ""V"": 1.0, ""H"": 1.0}",645.449,#FFFFFF,triclinic,{47},1998.0
Nancyrossite,FeGeO6H5,"{""Fe"": 1.0, ""Ge"": 1.0, ""O"": 6.0, ""H"": 5.0}",229.509,#556B2F,tetragonal,{},1.0
Nanlingite,Na(Ca5Li)Mg12(AsO3)2[Fe2+(AsO3)6]F14,"{""Na"": 1.0, ""Ca"": 5.0, ""Li"": 1.0, ""Mg"": 12.0, ""As"": 8.0, ""O"": 24.0, ""Fe"": 1.0, ""F"": 14.0}",1827.149,#556B2F,hexagonal,{47},1998.0