name,formula,elements,density,color,crystal,pm_ids,gacha_weight
Gugiaite,Ca2BeSi2O7,"{""Ca"": 2.0, ""Be"": 1.0, ""Si"": 2.0, ""O"": 7.0}",257.3312,#FFFFFF,tetragonal,"{31,34}",4.582e-08
Guidottiite,Mn2Fe3+(SiFe3+)O5(OH)4,"{""Mn"": 2.0, ""Fe"": 2.0, ""Si"": 1.0, ""O"": 9.0, ""H"": 4.0}",397.674,#556B2F,hexagonal,{32},1.214e-09
Guildite,CuFe3+(SO4)2(OH)·4H2O,"{""Cu"": 1.0, ""Fe"": 1.0, ""S"": 2.0, ""O"": 13.0, ""H"": 9.0}",400.57,#556B2F,monoclinic,"{47,55}",3.761e-09
Guilleminite,Ba(UO2)3(Se4+O3)2O2·3H2O,"{""Ba"": 1.0, ""U"": 3.0, ""O"": 17.0, ""Se"": 2.0, ""H"": 6.0}",1287.393,#FFFFFF,orthorhombic,{47},1.5015e-07
Guimaraesite,Ca2Be4Zn5(PO4)6(OH)4·6H2O,"{""Ca"": 2.0, ""Be"": 4.0, ""Zn"": 5.0, ""P"": 6.0, ""O"": 34.0, ""H"": 16.0}",1189.0428,#FFFFFF,monoclinic,{34},1.773e-09
Guite,Co2+Co3+2O4,"{""Co"": 3.0, ""O"": 4.0}",240.795,#4169E1,cubic,{47},1.5015e-07
Guixiangite,NiBiS,"{""Ni"": 1.0, ""Bi"": 1.0, ""S"": 1.0}",299.733,#A9A9A9,cubic,{},2e-08
Gungerite,TlAs5Sb4S13,"{""Tl"": 1.0, ""As"": 5.0, ""Sb"": 4.0, ""S"": 13.0}",1482.81,#FFD700,orthorhombic,{33},2.51e-10
Gunmaite,(Na2Sr)Sr2Al10(PO4)4F14(OH)12,"{""Na"": 2.0, ""Sr"": 3.0, ""Al"": 10.0, ""P"": 4.0, ""O"": 28.0, ""F"": 14.0, ""H"": 12.0}",1428.596,#FFFFFF,hexagonal,{},5e-08
Gunningite,Zn(SO4)·H2O,"{""Zn"": 1.0, ""S"": 1.0, ""O"": 5.0, ""H"": 2.0}",179.451,#FFFFFF,monoclinic,"{45,47,50,54,57}",9.144e-09
Gunterite,Na4Ca[V10O28]·20H2O,"{""Na"": 4.0, ""Ca"": 1.0, ""V"": 10.0, ""O"": 48.0, ""H"": 40.0}",1449.73,#FFFFFF,monoclinic,"{47,55}",1.88029e-07
Gupeiite,Fe3Si,"{""Fe"": 3.0, ""Si"": 1.0}",195.62,#8B4513,cubic,"{7,26}",2.30472e-07
Gurimite,Ba3(VO4)2,"{""Ba"": 3.0, ""V"": 2.0, ""O"": 8.0}",641.866,#FFFFFF,hexagonal,{51},7.8125e-08
Gurzhiite,Al(UO2)(SO4)2F·10H2O,"{""Al"": 1.0, ""U"": 1.0, ""O"": 20.0, ""S"": 2.0, ""F"": 1.0, ""H"": 20.0}",688.27,#FFFFFF,triclinic,{47},3.003e-09
Gustavite,AgPbBi3S6,"{""Ag"": 1.0, ""Pb"": 1.0, ""Bi"": 3.0, ""S"": 6.0}",1134.37,#708090,orthorhombic,{12},1.55e-09
Guyanaite,CrO(OH),"{""Cr"": 1.0, ""O"": 2.0, ""H"": 1.0}",85.002,#228B22,orthorhombic,"{31,40,47}",9.582629e-06
Gwihabaite,(NH4)(NO3),"{""N"": 2.0, ""H"": 4.0, ""O"": 3.0}",80.043,#FFFFFF,orthorhombic,"{49,50,52,54}",3.48124e-07
Gypsum,Ca(SO4)·2H2O,"{""Ca"": 1.0, ""S"": 1.0, ""O"": 6.0, ""H"": 4.0}",172.164,#FFFFFF,monoclinic,"{6,21,25,45,47,48,49,50,54,55}",1.5694e-08
Gyrolite,NaCa16(Si23Al)O60(OH)8·14H2O,"{""Na"": 1.0, ""Ca"": 16.0, ""Si"": 23.0, ""Al"": 1.0, ""O"": 82.0, ""H"": 36.0}",2685.381,#FFFFFF,triclinic,"{10,16,50,54}",3.81296e-07
Gysinite-(Ce),PbCe(CO3)2(OH)(H2O),"{""Pb"": 1.0, ""Ce"": 1.0, ""C"": 2.0, ""O"": 8.0, ""H"": 3.0}",502.358,#FFFFFF,orthorhombic,{},1e-06
Gysinite-(La),PbLa(CO3)2(OH)·H2O,"{""Pb"": 1.0, ""La"": 1.0, ""C"": 2.0, ""O"": 8.0, ""H"": 3.0}",501.148,#FFFFFF,orthorhombic,{47},1.5015e-07
Gysinite-(Nd),PbNd(CO3)2(OH)·H2O,"{""Pb"": 1.0, ""Nd"": 1.0, ""C"": 2.0, ""O"": 8.0, ""H"": 3.0}",506.478,#FFFFFF,orthorhombic,{47},1.5015e-07
Hafnon,Hf(SiO4),"{""Hf"": 1.0, ""Si"": 1.0, ""O"": 4.0}",270.571,#FFFFFF,tetragonal,{34},1.773e-08
Hagendorfite,Na2MnFe2+Fe3+(PO4)3,"{""Na"": 2.0, ""Mn"": 1.0, ""Fe"": 2.0, ""P"": 3.0, ""O"": 12.0}",497.518,#556B2F,monoclinic,"{31,34}",2.291e-09
Haggertyite,BaFe2+4Fe3+2Ti5MgO19,"{""Ba"": 1.0, ""Fe"": 6.0, ""Ti"": 5.0, ""Mg"": 1.0, ""O"": 19.0}",1040.021,#556B2F,hexagonal,{36},1.0309e-08
Haggite,V3+V4+O2(OH)3,"{""V"": 2.0, ""O"": 5.0, ""H"": 3.0}",184.903,#FFFFFF,monoclinic,{47},1.5015e-07
Hagstromite,Pb8Cu2+(Te6+O6)2(CO3)Cl4,"{""Pb"": 8.0, ""Cu"": 1.0, ""Te"": 2.0, ""O"": 15.0, ""C"": 1.0, ""Cl"": 4.0}",2370.142,#FFFFFF,orthorhombic,{47},1.5015e-07
Haidingerite,Ca(AsO3OH)·H2O,"{""Ca"": 1.0, ""As"": 1.0, ""O"": 5.0, ""H"": 3.0}",198.019,#FFFFFF,orthorhombic,{47},1.5015e-07
Haigerachite,KFe3+3(H2PO4)6(HPO4)2·4H2O,"{""K"": 1.0, ""Fe"": 3.0, ""H"": 22.0, ""P"": 8.0, ""O"": 36.0}",1052.565,#556B2F,monoclinic,{47},1.5015e-08
Hainite-(Y),Ca2(CaY)Na(NaCa)Ti(Si2O7)2(OF)F2,"{""Ca"": 4.0, ""Y"": 1.0, ""Na"": 2.0, ""Ti"": 1.0, ""Si"": 4.0, ""O"": 15.0, ""F"": 3.0}",752.384,#FFFFFF,triclinic,{35},6.89e-10
Haitaite-(La),LaU4+Fe3+2(Ti13Fe2+4Fe3+)O38,"{""La"": 1.0, ""U"": 1.0, ""Fe"": 7.0, ""Ti"": 13.0, ""O"": 38.0}",1998.088,#556B2F,hexagonal,{36},1.0309e-08
Haiweeite,Ca(UO2)2(Si5O12)(OH)2·6H2O,"{""Ca"": 1.0, ""U"": 2.0, ""O"": 24.0, ""Si"": 5.0, ""H"": 14.0}",1054.651,#FFFFFF,orthorhombic,"{22,25}",8.8105e-08
Hakite-(Cd),Cu6(Cu4Cd2)Sb4Se13,"{""Cu"": 10.0, ""Cd"": 2.0, ""Sb"": 4.0, ""Se"": 13.0}",2373.943,#FFFFFF,cubic,{},1e-06
Hakite-(Fe),Cu6(Cu4Fe2)Sb4Se13,"{""Cu"": 10.0, ""Fe"": 2.0, ""Sb"": 4.0, ""Se"": 13.0}",2260.813,#556B2F,cubic,{},1e-06
Hakite-(Hg),Cu6(Cu4Hg2)Sb4Se13,"{""Cu"": 10.0, ""Hg"": 2.0, ""Sb"": 4.0, ""Se"": 13.0}",2550.303,#FFFFFF,cubic,{33},1.2547e-08
Hakite-(Zn),Cu6(Cu4Zn2)Sb4Se13,"{""Cu"": 10.0, ""Zn"": 2.0, ""Sb"": 4.0, ""Se"": 13.0}",2279.883,#FFFFFF,cubic,{},1e-06
Halamishite,Ni5P4,"{""Ni"": 5.0, ""P"": 4.0}",417.361,#7FFF00,hexagonal,{51},7.812e-09
Haleniusite-(Ce),CeOF,"{""Ce"": 1.0, ""O"": 1.0, ""F"": 1.0}",175.117,#FFFFFF,cubic,{23},8.794e-08
Haleniusite-(La),LaOF,"{""La"": 1.0, ""O"": 1.0, ""F"": 1.0}",173.907,#FFFFFF,cubic,{23},8.794e-08
Halite,NaCl,"{""Na"": 1.0, ""Cl"": 1.0}",58.44,#FFFFFF,cubic,"{6,21,25,45,50,54,55,57}",5.67892e-07
Halloysite,Al2Si2O5(OH)4,"{""Al"": 2.0, ""Si"": 2.0, ""O"": 9.0, ""H"": 4.0}",258.157,#FFFFFF,monoclinic,{47},4.35435e-07
Halotrichite,Fe2+Al2(SO4)4·22H2O,"{""Fe"": 1.0, ""Al"": 2.0, ""S"": 4.0, ""O"": 38.0, ""H"": 44.0}",890.363,#556B2F,monoclinic,"{14,45,47,50,54,55}",9.098e-09
Halurgite,Mg4[B8O13(OH)2]2·7H2O,"{""Mg"": 4.0, ""B"": 16.0, ""O"": 37.0, ""H"": 18.0}",880.287,#FFFFFF,unknown,{25},4.7619e-08
Hambergite,Be2(BO3)(OH),"{""Be"": 2.0, ""B"": 1.0, ""O"": 4.0, ""H"": 1.0}",93.8384,#FFFFFF,orthorhombic,{34},1.773e-08
Hammarite,Cu2Pb2Bi4S9,"{""Cu"": 2.0, ""Pb"": 2.0, ""Bi"": 4.0, ""S"": 9.0}",1665.952,#708090,orthorhombic,{33},2.51e-10
Hanahanite,[Zn8(OH)14(SO4)]·3H2O,"{""Zn"": 8.0, ""O"": 21.0, ""H"": 20.0, ""S"": 1.0}",911.239,#FFFFFF,hexagonal,{47},3.003e-09
Hanauerite,AgHgSI,"{""Ag"": 1.0, ""Hg"": 1.0, ""S"": 1.0, ""I"": 1.0}",467.42,#A9A9A9,orthorhombic,{33},2.51e-10
Hanawaltite,Hg1+6Hg2+O3Cl2,"{""Hg"": 7.0, ""O"": 3.0, ""Cl"": 2.0}",1523.027,#FFFFFF,orthorhombic,{47},1.5015e-07
Hancockite,CaPb(Al2Fe3+)[Si2O7][SiO4]O(OH),"{""Ca"": 1.0, ""Pb"": 1.0, ""Al"": 2.0, ""Fe"": 1.0, ""Si"": 3.0, ""O"": 13.0, ""H"": 1.0}",650.337,#556B2F,monoclinic,{32},2.4272e-08
Hanjiangite,Ba2Ca(V3+Al)(AlSi3O10)(OH)2F(CO3)2,"{""Ba"": 2.0, ""Ca"": 1.0, ""V"": 1.0, ""Al"": 2.0, ""Si"": 3.0, ""O"": 18.0, ""H"": 2.0, ""F"": 1.0, ""C"": 2.0}",836.917,#FFFFFF,monoclinic,"{32,47}",8.721e-09
Hanksite,KNa22(SO4)9(CO3)2Cl,"{""K"": 1.0, ""Na"": 22.0, ""S"": 9.0, ""O"": 42.0, ""C"": 2.0, ""Cl"": 1.0}",1564.848,#FFFFFF,hexagonal,{25},9.52e-10
Hannayite,(NH4)2Mg3(PO3OH)4·8H2O,"{""N"": 2.0, ""H"": 28.0, ""Mg"": 3.0, ""P"": 4.0, ""O"": 24.0}",637.025,#FFFFFF,triclinic,"{49,52}",2.6876e-08
Hansesmarkite,Ca2Mn2Nb6O19·20H2O,"{""Ca"": 2.0, ""Mn"": 2.0, ""Nb"": 6.0, ""O"": 39.0, ""H"": 40.0}",1411.749,#FFFFFF,triclinic,"{35,47}",8.196e-09
Hanswilkeite,KFeS2,"{""K"": 1.0, ""Fe"": 1.0, ""S"": 2.0}",159.063,#DAA520,monoclinic,{51},1.563e-09
Hapkeite,Fe2Si,"{""Fe"": 2.0, ""Si"": 1.0}",139.775,#8B4513,cubic,{},1.9e-06
Haradaite,SrV4+Si2O7,"{""Sr"": 1.0, ""V"": 1.0, ""Si"": 2.0, ""O"": 7.0}",306.725,#FFFFFF,orthorhombic,{32},2.4272e-08
Hardystonite,Ca2ZnSi2O7,"{""Ca"": 2.0, ""Zn"": 1.0, ""Si"": 2.0, ""O"": 7.0}",313.699,#FFFFFF,tetragonal,"{32,56}",9.4202e-08
Harmotome,Ba2(Si12Al4)O32·12H2O,"{""Ba"": 2.0, ""Si"": 12.0, ""Al"": 4.0, ""O"": 44.0, ""H"": 24.0}",1447.756,#FFFFFF,monoclinic,"{17,22,32,35}",2.7461e-07
Harmunite,CaFe2O4,"{""Ca"": 1.0, ""Fe"": 2.0, ""O"": 4.0}",215.764,#8B4513,orthorhombic,"{50,51,54}",2.04737e-07
Harrisonite,CaFe2+6(SiO4)2(PO4)2,"{""Ca"": 1.0, ""Fe"": 6.0, ""Si"": 2.0, ""O"": 16.0, ""P"": 2.0}",749.25,#556B2F,hexagonal,{40},9.40439e-07
Harstigite,Ca6Be4Mn2+(SiO4)2(Si2O7)2(OH)2,"{""Ca"": 6.0, ""Be"": 4.0, ""Mn"": 1.0, ""Si"": 6.0, ""O"": 24.0, ""H"": 2.0}",885.9568,#FFFFFF,orthorhombic,{32},1.214e-09
Hasanovite,KNa(MoO2)(SO4)2,"{""K"": 1.0, ""Na"": 1.0, ""Mo"": 1.0, ""O"": 10.0, ""S"": 2.0}",382.148,#FFFFFF,monoclinic,{54},8.55e-10
Hashemite,Ba(CrO4),"{""Ba"": 1.0, ""Cr"": 1.0, ""O"": 4.0}",253.322,#228B22,orthorhombic,{51},7.8125e-08
Hastingsite,NaCa2(Fe2+4Fe3+)(Si6Al2)O22(OH)2,"{""Na"": 1.0, ""Ca"": 2.0, ""Fe"": 5.0, ""Si"": 6.0, ""Al"": 2.0, ""O"": 24.0, ""H"": 2.0}",990.837,#556B2F,monoclinic,"{8,19,20,26,31,34,35,37,40}",6.6582006e-05
Hatchite,AgTlPbAs2S5,"{""Ag"": 1.0, ""Tl"": 1.0, ""Pb"": 1.0, ""As"": 2.0, ""S"": 5.0}",829.594,#708090,triclinic,{33},2.51e-10
Hatertite,NaNaCa(Cu2+Fe3+)(AsO4)3,"{""Na"": 2.0, ""Ca"": 1.0, ""Cu"": 1.0, ""Fe"": 1.0, ""As"": 3.0, ""O"": 12.0}",622.203,#556B2F,monoclinic,{45},2.3585e-08
Hatrurite,Ca3SiO5,"{""Ca"": 3.0, ""Si"": 1.0, ""O"": 5.0}",228.314,#FFFFFF,hexagonal,{51},1.01562e-07
Hauchecornite,Ni9BiSbS8,"{""Ni"": 9.0, ""Bi"": 1.0, ""Sb"": 1.0, ""S"": 8.0}",1115.457,#A9A9A9,tetragonal,{33},2.51e-10
Hauckite,Fe3+3Mg24Zn18(SO4)4(CO3)2(OH)81,"{""Fe"": 3.0, ""Mg"": 24.0, ""Zn"": 18.0, ""S"": 4.0, ""O"": 103.0, ""C"": 2.0, ""H"": 81.0}",3809.502,#556B2F,hexagonal,{32},4.85e-10
Hauerite,MnS2,"{""Mn"": 1.0, ""S"": 2.0}",119.058,#A9A9A9,cubic,"{24,32}",3.188e-09
Hausmannite,Mn2+Mn3+2O4,"{""Mn"": 3.0, ""O"": 4.0}",228.81,#FFB6C1,tetragonal,{32},1.214e-09
Hauyne,Na3Ca(Si3Al3)O12(SO4),"{""Na"": 3.0, ""Ca"": 1.0, ""Si"": 3.0, ""Al"": 3.0, ""O"": 16.0, ""S"": 1.0}",562.293,#FFFFFF,cubic,"{9,35,45}",2.322e-09
Hawleyite,CdS,"{""Cd"": 1.0, ""S"": 1.0}",144.47,#A9A9A9,cubic,"{33,55}",1.009e-09
Hawthorneite,BaMgTi3Cr4Fe2+2Fe3+2O19,"{""Ba"": 1.0, ""Mg"": 1.0, ""Ti"": 3.0, ""Cr"": 4.0, ""Fe"": 4.0, ""O"": 19.0}",1040.581,#556B2F,hexagonal,{36},1.0309e-08
Haycockite,Cu4Fe5S8,"{""Cu"": 4.0, ""Fe"": 5.0, ""S"": 8.0}",789.889,#DAA520,orthorhombic,"{15,33,37}",7.982e-09
Haydeeite,Cu3Mg(OH)6Cl2,"{""Cu"": 3.0, ""Mg"": 1.0, ""O"": 6.0, ""H"": 6.0, ""Cl"": 2.0}",387.885,#FFFFFF,hexagonal,{47},1.5015e-07
Haynesite,(UO2)3(Se4+O3)2(OH)2·5H2O,"{""U"": 3.0, ""O"": 19.0, ""Se"": 2.0, ""H"": 12.0}",1188.109,#FFFFFF,orthorhombic,{47},1.5015e-07
Haywoodite,[Pb(H2O)10][Zn12(OH)20(H2O)(SO4)3],"{""Pb"": 1.0, ""H"": 42.0, ""O"": 43.0, ""Zn"": 12.0, ""S"": 3.0}",1818.233,#FFFFFF,triclinic,{47},3.003e-09
Hayyanite,Cu5Ag11Pb76Sb71As17(As2+)8S224,"{""Cu"": 5.0, ""Ag"": 11.0, ""Pb"": 76.0, ""Sb"": 71.0, ""As"": 25.0, ""S"": 224.0}",34950.95,#708090,monoclinic,{},2e-08
Hazenite,KNaMg2(PO4)2·14H2O,"{""K"": 1.0, ""Na"": 1.0, ""Mg"": 2.0, ""P"": 2.0, ""O"": 22.0, ""H"": 28.0}",552.848,#FFFFFF,orthorhombic,{49},1.2987e-08
Heazlewoodite,Ni3S2,"{""Ni"": 3.0, ""S"": 2.0}",240.199,#A9A9A9,hexagonal,"{6,7,12,13,33,36,37,38}",1.1409e-08
Hechtsbergite,Bi2O(VO4)(OH),"{""Bi"": 2.0, ""O"": 6.0, ""V"": 1.0, ""H"": 1.0}",565.904,#FFFFFF,monoclinic,{47},1.5015e-07
Hectorfloresite,Na9(IO3)(SO4)4,"{""Na"": 9.0, ""I"": 1.0, ""O"": 19.0, ""S"": 4.0}",766.031,#FFFFFF,monoclinic,{25},9.52e-10
Hedenbergite,CaFe2+Si2O6,"{""Ca"": 1.0, ""Fe"": 1.0, ""Si"": 2.0, ""O"": 6.0}",248.087,#556B2F,monoclinic,"{5,6,19,28,31,40}",5.921848e-05
Hedleyite,Bi7Te3,"{""Bi"": 7.0, ""Te"": 3.0}",1845.66,#D2B48C,hexagonal,"{31,33}",4.0637e-08
Hedyphane,Ca2Pb3(AsO4)3Cl,"{""Ca"": 2.0, ""Pb"": 3.0, ""As"": 3.0, ""O"": 12.0, ""Cl"": 1.0}",1153.96,#FFFFFF,hexagonal,"{32,45,47}",1.98007e-07
Heflikite,Ca2(Al2Sc)(Si2O7)(SiO4)O(OH),"{""Ca"": 2.0, ""Al"": 2.0, ""Sc"": 1.0, ""Si"": 3.0, ""O"": 13.0, ""H"": 1.0}",472.326,#FFFFFF,monoclinic,{},1e-06
Heftetjernite,ScTaO4,"{""Sc"": 1.0, ""Ta"": 1.0, ""O"": 4.0}",289.902,#FFFFFF,monoclinic,{34},1.773e-08
Heidornite,Na2Ca3B5O8(SO4)2(OH)2Cl,"{""Na"": 2.0, ""Ca"": 3.0, ""B"": 5.0, ""O"": 18.0, ""S"": 2.0, ""H"": 2.0, ""Cl"": 1.0}",609.832,#FFFFFF,monoclinic,{25},9.52e-10
Heimaeyite,Na3Al(SO4)3,"{""Na"": 3.0, ""Al"": 1.0, ""S"": 3.0, ""O"": 12.0}",384.12,#FFFFFF,hexagonal,{},2e-08
Heimite,PbCu2(AsO4)(OH)3·2H2O,"{""Pb"": 1.0, ""Cu"": 2.0, ""As"": 1.0, ""O"": 9.0, ""H"": 7.0}",560.261,#FFFFFF,monoclinic,{47},1.5015e-07
Heinrichite,Ba(UO2)2(AsO4)2·10H2O,"{""Ba"": 1.0, ""U"": 2.0, ""O"": 22.0, ""As"": 2.0, ""H"": 20.0}",1135.372,#FFFFFF,monoclinic,{47},1.5015e-07
Heisenbergite,(UO2)(OH)2·H2O,"{""U"": 1.0, ""O"": 5.0, ""H"": 4.0}",322.057,#ADFF2F,orthorhombic,{47},1.5015e-07
Hejtmanite,Ba2Mn2+4Ti2(Si2O7)2O2(OH)2F2,"{""Ba"": 2.0, ""Mn"": 4.0, ""Ti"": 2.0, ""Si"": 4.0, ""O"": 18.0, ""H"": 2.0, ""F"": 2.0}",1030.48,#FFFFFF,monoclinic,"{23,35}",8.8628e-08
Heklaite,KNaSiF6,"{""K"": 1.0, ""Na"": 1.0, ""Si"": 1.0, ""F"": 6.0}",204.161,#FFFFFF,orthorhombic,{45},1.179e-09
Hellyerite,Ni(CO3)·6H2O,"{""Ni"": 1.0, ""C"": 1.0, ""O"": 9.0, ""H"": 12.0}",226.791,#FFFFFF,unknown,{47},1.5015e-07
Helmutwinklerite,PbZn2(AsO4)2·2H2O,"{""Pb"": 1.0, ""Zn"": 2.0, ""As"": 2.0, ""O"": 10.0, ""H"": 4.0}",651.826,#FFFFFF,triclinic,{47},1.5015e-07
Helvine,Be3Mn2+4(SiO4)3S,"{""Be"": 3.0, ""Mn"": 4.0, ""Si"": 3.0, ""O"": 12.0, ""S"": 1.0}",555.0916,#FFFFFF,cubic,"{23,34,35,40}",2.23894e-07
Hematite,Fe2O3,"{""Fe"": 2.0, ""O"": 3.0}",159.687,#8B4513,hexagonal,"{9,10,14,15,17,21,24,25,32,40,44,45,47,48,49,53}",2.2841267e-05
Hemihedrite,ZnPb10(CrO4)6(SiO4)2(OH)2,"{""Zn"": 1.0, ""Pb"": 10.0, ""Cr"": 6.0, ""O"": 34.0, ""Si"": 2.0, ""H"": 2.0}",3051.508,#FFFFFF,triclinic,{47},1.5015e-07
Hemimorphite,Zn4(Si2O7)(OH)2·H2O,"{""Zn"": 4.0, ""Si"": 2.0, ""O"": 10.0, ""H"": 4.0}",481.712,#FFFFFF,orthorhombic,"{45,47,50,54}",2.531e-07
Hemleyite,FeSiO3,"{""Fe"": 1.0, ""Si"": 1.0, ""O"": 3.0}",131.927,#8B4513,hexagonal,{6},9.2683e-08
Hemusite,Cu1+4Cu2+2SnMoS8,"{""Cu"": 6.0, ""Sn"": 1.0, ""Mo"": 1.0, ""S"": 8.0}",852.416,#A9A9A9,cubic,{12},1.55e-09
Hendekasartorite,Tl2Pb48As82S172,"{""Tl"": 2.0, ""Pb"": 48.0, ""As"": 82.0, ""S"": 172.0}",22012.284,#708090,monoclinic,{33},2.51e-10
Hendricksite,KZn3(Si3Al)O10(OH)2,"{""K"": 1.0, ""Zn"": 3.0, ""Si"": 3.0, ""Al"": 1.0, ""O"": 12.0, ""H"": 2.0}",540.479,#FFFFFF,monoclinic,{32},2.4272e-08
Heneuite,CaMg5(PO4)3(CO3)(OH),"{""Ca"": 1.0, ""Mg"": 5.0, ""P"": 3.0, ""O"": 16.0, ""C"": 1.0, ""H"": 1.0}",523.528,#FFFFFF,triclinic,"{31,40}",9.43248e-07
Henmilite,Ca2Cu[B(OH)4]2(OH)4,"{""Ca"": 2.0, ""Cu"": 1.0, ""B"": 2.0, ""O"": 12.0, ""H"": 12.0}",369.406,#FFFFFF,triclinic,{23},1.758794e-06
Hennomartinite,SrMn3+2(Si2O7)(OH)2·H2O,"{""Sr"": 1.0, ""Mn"": 2.0, ""Si"": 2.0, ""O"": 10.0, ""H"": 4.0}",417.688,#FFFFFF,orthorhombic,{32},1.214e-09
Henritermierite,Ca3Mn3+2(SiO4)2(OH)4,"{""Ca"": 3.0, ""Mn"": 2.0, ""Si"": 2.0, ""O"": 12.0, ""H"": 4.0}",482.3,#FFFFFF,cubic,{32},1.214e-09
Henrymeyerite,Ba(Ti7Fe2+)O16,"{""Ba"": 1.0, ""Ti"": 7.0, ""Fe"": 1.0, ""O"": 16.0}",784.228,#556B2F,tetragonal,"{35,36}",1.4442e-08
Henrysunite,Na2(C2H3O3)2(H2O),"{""Na"": 2.0, ""C"": 4.0, ""H"": 8.0, ""O"": 7.0}",214.081,#FFFFFF,orthorhombic,{},1e-06
Hentschelite,CuFe3+2(PO4)2(OH)2,"{""Cu"": 1.0, ""Fe"": 2.0, ""P"": 2.0, ""O"": 10.0, ""H"": 2.0}",399.19,#556B2F,monoclinic,{47},1.5015e-08
Hephaistosite,TlPb2Cl5,"{""Tl"": 1.0, ""Pb"": 2.0, ""Cl"": 5.0}",796.03,#FFFFFF,monoclinic,{45},2.3585e-08
Heptasartorite,Tl7Pb22As55S108,"{""Tl"": 7.0, ""Pb"": 22.0, ""As"": 55.0, ""S"": 108.0}",13572.25,#708090,monoclinic,{33},2.51e-10
Herbertsmithite,Cu3Zn(OH)6Cl2,"{""Cu"": 3.0, ""Zn"": 1.0, ""O"": 6.0, ""H"": 6.0, ""Cl"": 2.0}",428.96,#FFFFFF,hexagonal,"{47,50}",1.8678e-07
Hercynite,Fe2+Al2O4,"{""Fe"": 1.0, ""Al"": 2.0, ""O"": 4.0}",173.805,#8B4513,cubic,"{5,6,7,8,23,40,50,54}",3.4068187e-05
Herderite,CaBe(PO4)F,"{""Ca"": 1.0, ""Be"": 1.0, ""P"": 1.0, ""O"": 4.0, ""F"": 1.0}",163.0582,#FFFFFF,monoclinic,{34},8.87e-10
Hermannjahnite,CuZn(SO4)2,"{""Cu"": 1.0, ""Zn"": 1.0, ""S"": 2.0, ""O"": 8.0}",321.038,#FFFFFF,monoclinic,{45},4.72e-10
Hermannroseite,CaCu(PO4)(OH),"{""Ca"": 1.0, ""Cu"": 1.0, ""P"": 1.0, ""O"": 5.0, ""H"": 1.0}",215.601,#FFFFFF,orthorhombic,{47},1.5015e-08
Herzenbergite,SnS,"{""Sn"": 1.0, ""S"": 1.0}",150.77,#A9A9A9,orthorhombic,{33},2.51e-10
Hessite,Ag2Te,"{""Ag"": 2.0, ""Te"": 1.0}",343.34,#C0C0C0,monoclinic,{33},1.2547e-08
Hetaerolite,ZnMn3+2O4,"{""Zn"": 1.0, ""Mn"": 2.0, ""O"": 4.0}",239.252,#FFB6C1,tetragonal,{32},1.214e-09
Heterogenite,Co3+O(OH),"{""Co"": 1.0, ""O"": 2.0, ""H"": 1.0}",91.939,#4169E1,hexagonal,"{47,48}",2.90995e-07
Heteromorphite,Pb7Sb8S19,"{""Pb"": 7.0, ""Sb"": 8.0, ""S"": 19.0}",3033.62,#708090,monoclinic,{33},2.51e-10
Heterosite,Fe3+(PO4),"{""Fe"": 1.0, ""P"": 1.0, ""O"": 4.0}",150.815,#8B4513,orthorhombic,"{34,47}",1.6788e-08
Hewettite,CaV5+6O16·9H2O,"{""Ca"": 1.0, ""V"": 6.0, ""O"": 25.0, ""H"": 18.0}",763.849,#FFFFFF,monoclinic,{47},1.5015e-07
Hexacelsian,Ba(Al2Si2O8),"{""Ba"": 1.0, ""Al"": 2.0, ""Si"": 2.0, ""O"": 8.0}",375.456,#FFFFFF,hexagonal,{51},7.8125e-08
Hexahydrite,Mg(SO4)·6H2O,"{""Mg"": 1.0, ""S"": 1.0, ""O"": 10.0, ""H"": 12.0}",228.451,#FFFFFF,monoclinic,"{6,21,25,45,49,50,54,55}",9.874e-09
Hexahydroborite,Ca[B(OH)4]2·2H2O,"{""Ca"": 1.0, ""B"": 2.0, ""O"": 10.0, ""H"": 12.0}",233.784,#FFFFFF,monoclinic,{23},1.758794e-06
Hexathioplumbite,[Pb4(OH)4]Pb(S2O3)3,"{""Pb"": 5.0, ""O"": 13.0, ""H"": 4.0, ""S"": 6.0}",1440.379,#FFFFFF,hexagonal,{47},3.003e-09
Heyerdahlite,Na3Mn7Ti2(Si4O12)2O2(OH)4F(H2O)2,"{""Na"": 3.0, ""Mn"": 7.0, ""Ti"": 2.0, ""Si"": 8.0, ""O"": 32.0, ""H"": 8.0, ""F"": 1.0}",1312.98,#FFFFFF,triclinic,{35},6.89e-10
Heyite,Pb5Fe2+2O4(VO4)2,"{""Pb"": 5.0, ""Fe"": 2.0, ""O"": 12.0, ""V"": 2.0}",1441.562,#556B2F,monoclinic,{47},1.5015e-07
Heyrovskyite,Pb6Bi2S9,"{""Pb"": 6.0, ""Bi"": 2.0, ""S"": 9.0}",1949.7,#708090,orthorhombic,"{11,12,33}",7.357e-09
Hiarneite,Ca2Zr4Mn3+SbTiO16,"{""Ca"": 2.0, ""Zr"": 4.0, ""Mn"": 1.0, ""Sb"": 1.0, ""Ti"": 1.0, ""O"": 16.0}",925.601,#FFFFFF,tetragonal,{35},6.89e-10
Hibbingite,Fe2+2(OH)3Cl,"{""Fe"": 2.0, ""O"": 3.0, ""H"": 3.0, ""Cl"": 1.0}",198.161,#556B2F,orthorhombic,{47},1.5015e-07
Hibonite,CaAl12O19,"{""Ca"": 1.0, ""Al"": 12.0, ""O"": 19.0}",667.843,#FFFFFF,hexagonal,"{1,3,6,31,40}",1.3187379e-05
Hidalgoite,PbAl3(SO4)(AsO4)(OH)6,"{""Pb"": 1.0, ""Al"": 3.0, ""S"": 1.0, ""O"": 14.0, ""As"": 1.0, ""H"": 6.0}",625.162,#FFFFFF,hexagonal,{47},3.003e-09
Hielscherite,Ca6Si2[(SO4)2(SO3)2(OH)12]·22H2O,"{""Ca"": 6.0, ""Si"": 2.0, ""S"": 4.0, ""O"": 48.0, ""H"": 56.0}",1249.278,#FFFFFF,hexagonal,{47},3.003e-09
Hieratite,K2SiF6,"{""K"": 2.0, ""Si"": 1.0, ""F"": 6.0}",220.269,#FFFFFF,cubic,"{45,49,50,54}",1.1641e-08
Hilairite,Na2ZrSi3O9·3H2O,"{""Na"": 2.0, ""Zr"": 1.0, ""Si"": 3.0, ""O"": 12.0, ""H"": 6.0}",419.495,#FFFFFF,hexagonal,{35},1.3774e-08
Hilarionite,Fe3+2(SO4)(AsO4)(OH)·6H2O,"{""Fe"": 2.0, ""S"": 1.0, ""O"": 15.0, ""As"": 1.0, ""H"": 13.0}",471.761,#556B2F,monoclinic,{47},3.003e-09
Hilgardite,Ca2B5O9Cl·H2O,"{""Ca"": 2.0, ""B"": 5.0, ""O"": 10.0, ""Cl"": 1.0, ""H"": 2.0}",331.662,#FFFFFF,monoclinic,{25},4.7619e-08
Hillebrandite,Ca2SiO3(OH)2,"{""Ca"": 2.0, ""Si"": 1.0, ""O"": 5.0, ""H"": 2.0}",190.252,#FFFFFF,orthorhombic,{31},3.6517e-08
Hillite,Ca2Zn(PO4)2·2H2O,"{""Ca"": 2.0, ""Zn"": 1.0, ""P"": 2.0, ""O"": 10.0, ""H"": 4.0}",371.506,#FFFFFF,triclinic,"{50,54}",7.937e-09
Hingganite-(Ce),BeCe(SiO4)(OH),"{""Be"": 1.0, ""Ce"": 1.0, ""Si"": 1.0, ""O"": 5.0, ""H"": 1.0}",258.2202,#FFFFFF,monoclinic,"{34,35}",3.1505e-08
Hingganite-(Y),BeY(SiO4)(OH),"{""Be"": 1.0, ""Y"": 1.0, ""Si"": 1.0, ""O"": 5.0, ""H"": 1.0}",207.0062,#FFFFFF,monoclinic,"{34,35}",3.1505e-08
Hingganite-(Yb),BeYb(SiO4)(OH),"{""Be"": 1.0, ""Yb"": 1.0, ""Si"": 1.0, ""O"": 5.0, ""H"": 1.0}",291.1502,#FFFFFF,monoclinic,"{34,35}",3.1505e-08
Hinokageite,MnMg(SiO4),"{""Mn"": 1.0, ""Mg"": 1.0, ""Si"": 1.0, ""O"": 4.0}",171.324,#FFFFFF,orthorhombic,{},5e-08
Hinsdalite,PbAl3(SO4)(PO4)(OH)6,"{""Pb"": 1.0, ""Al"": 3.0, ""S"": 1.0, ""O"": 14.0, ""P"": 1.0, ""H"": 6.0}",581.214,#FFFFFF,hexagonal,{47},3.003e-09
Hiroseite,FeSiO3,"{""Fe"": 1.0, ""Si"": 1.0, ""O"": 3.0}",131.927,#8B4513,orthorhombic,"{6,39}",3.64111e-07
Hisingerite,Fe2Si2O5(OH)4·2H2O,"{""Fe"": 2.0, ""Si"": 2.0, ""O"": 11.0, ""H"": 8.0}",351.913,#556B2F,unknown,"{22,47}",3.62208e-07