name,formula,elements,density,color,crystal,pm_ids,gacha_weight
Iskandarovite,Sb6O7(SO4)2,"{""Sb"": 6.0, ""O"": 15.0, ""S"": 2.0}",1034.665,#FFFF00,orthorhombic,{54},8.55e-10
Isoclasite,Ca2(PO4)(OH)·2H2O,"{""Ca"": 2.0, ""P"": 1.0, ""O"": 7.0, ""H"": 5.0}",228.163,#FFFFFF,unknown,{47},1.5015e-08
Isocubanite,CuFe2S3,"{""Cu"": 1.0, ""Fe"": 2.0, ""S"": 3.0}",271.416,#DAA520,cubic,"{6,9,12,15,28,33}",3.0602e-08
Isoferroplatinum,Pt3Fe,"{""Pt"": 3.0, ""Fe"": 1.0}",641.085,#8B4513,cubic,"{7,26,37}",1.95375e-07
Isokite,CaMg(PO4)F,"{""Ca"": 1.0, ""Mg"": 1.0, ""P"": 1.0, ""O"": 4.0, ""F"": 1.0}",178.351,#FFFFFF,monoclinic,"{34,36,47}",1.0112e-08
Isolueshite,NaNbO3,"{""Na"": 1.0, ""Nb"": 1.0, ""O"": 3.0}",163.893,#FFFFFF,cubic,{35},1.3774e-08
Isomertieite,Pd11Sb2As2,"{""Pd"": 11.0, ""Sb"": 2.0, ""As"": 2.0}",1563.984,#808080,cubic,"{33,37}",8.6621e-08
Isselite,Cu6(SO4)(OH)10(H2O)4·H2O,"{""Cu"": 6.0, ""S"": 1.0, ""O"": 19.0, ""H"": 20.0}",737.477,#FFFFFF,orthorhombic,{47},3.003e-09
Itelmenite,Na2CuMg2(SO4)4,"{""Na"": 2.0, ""Cu"": 1.0, ""Mg"": 2.0, ""S"": 4.0, ""O"": 16.0}",542.36,#FFFFFF,orthorhombic,{45},4.72e-10
Itoigawaite,SrAl2Si2O7(OH)2·H2O,"{""Sr"": 1.0, ""Al"": 2.0, ""Si"": 2.0, ""O"": 10.0, ""H"": 4.0}",361.776,#FFFFFF,monoclinic,{39},1.42857e-07
Itoite,Pb3GeO2(SO4)2(OH)2,"{""Pb"": 3.0, ""Ge"": 1.0, ""O"": 12.0, ""S"": 2.0, ""H"": 2.0}",952.354,#FFFFFF,orthorhombic,"{47,57}",7.085e-09
Itsiite,Ba2Ca(BSi2O7)2,"{""Ba"": 2.0, ""Ca"": 1.0, ""B"": 2.0, ""Si"": 4.0, ""O"": 14.0}",672.684,#FFFFFF,tetragonal,{32},2.4272e-08
Ivanyukite-Cu,Cu[Ti4O2(OH)2(SiO4)3]·7H2O,"{""Cu"": 1.0, ""Ti"": 4.0, ""O"": 23.0, ""H"": 16.0, ""Si"": 3.0}",723.374,#FFFFFF,cubic,{35},4.132e-09
Ivanyukite-K,K2[Ti4O2(OH)2(SiO4)3]·9H2O,"{""K"": 2.0, ""Ti"": 4.0, ""O"": 25.0, ""H"": 20.0, ""Si"": 3.0}",774.054,#FFFFFF,cubic,{35},4.132e-09
Ivanyukite-Na,Na2[Ti4O2(OH)2(SiO4)3]·6H2O,"{""Na"": 2.0, ""Ti"": 4.0, ""O"": 22.0, ""H"": 14.0, ""Si"": 3.0}",687.793,#FFFFFF,hexagonal,{35},4.132e-09
Ivsite,Na3H(SO4)2,"{""Na"": 3.0, ""H"": 1.0, ""S"": 2.0, ""O"": 8.0}",262.09,#FFFFFF,monoclinic,"{45,47}",3.475e-09
Iwashiroite-(Y),YTaO4,"{""Y"": 1.0, ""Ta"": 1.0, ""O"": 4.0}",333.852,#FFFFFF,monoclinic,{34},1.773e-08
Iwateite,Na2BaMn(PO4)2,"{""Na"": 2.0, ""Ba"": 1.0, ""Mn"": 1.0, ""P"": 2.0, ""O"": 8.0}",428.188,#FFFFFF,hexagonal,{32},1.214e-09
Ixiolite-(Fe2+),(Ta2/3Fe2+1/3)O2,"{""Ta"": 2.0, ""Fe"": 1.0, ""O"": 2.0}",449.743,#8B4513,orthorhombic,{},1e-06
Ixiolite-(Mn2+),(Ta2/3Mn2+1/3)O2,"{""Ta"": 2.0, ""Mn"": 1.0, ""O"": 2.0}",448.836,#FFB6C1,orthorhombic,{34},8.87e-10
Iyoite,MnCuCl(OH)3,"{""Mn"": 1.0, ""Cu"": 1.0, ""Cl"": 1.0, ""O"": 3.0, ""H"": 3.0}",204.955,#FFFFFF,monoclinic,"{22,47}",9.532e-09
Jachymovite,(UO2)8(SO4)(OH)14·13H2O,"{""U"": 8.0, ""O"": 47.0, ""S"": 1.0, ""H"": 40.0}",2728.573,#FFFFFF,monoclinic,"{47,55}",3.761e-09
Jacobsite,Mn2+Fe3+2O4,"{""Mn"": 1.0, ""Fe"": 2.0, ""O"": 4.0}",230.624,#FFB6C1,cubic,"{21,32,40}",4.77762e-07
Jacquesdietrichite,Cu2BO(OH)5,"{""Cu"": 2.0, ""B"": 1.0, ""O"": 6.0, ""H"": 5.0}",238.936,#FFFFFF,orthorhombic,{23},1.758794e-06
Jacutingaite,Pt2HgSe3,"{""Pt"": 2.0, ""Hg"": 1.0, ""Se"": 3.0}",827.663,#FFFFFF,hexagonal,{33},1.2547e-08
Jadarite,LiNaB3SiO7(OH),"{""Li"": 1.0, ""Na"": 1.0, ""B"": 3.0, ""Si"": 1.0, ""O"": 8.0, ""H"": 1.0}",219.445,#FFFFFF,monoclinic,{25},4.7619e-08
Jadeite,NaAlSi2O6,"{""Na"": 1.0, ""Al"": 1.0, ""Si"": 2.0, ""O"": 6.0}",202.136,#FFFFFF,monoclinic,"{6,39,40}",2.3990066e-05
Jaffeite,Ca6Si2O7(OH)6,"{""Ca"": 6.0, ""Si"": 2.0, ""O"": 13.0, ""H"": 6.0}",510.673,#FFFFFF,hexagonal,{31},3.6517e-08
Jagowerite,BaAl2(PO4)2(OH)2,"{""Ba"": 1.0, ""Al"": 2.0, ""P"": 2.0, ""O"": 10.0, ""H"": 2.0}",415.248,#FFFFFF,triclinic,{23},1.75879e-07
Jagueite,Cu2Pd3Se4,"{""Cu"": 2.0, ""Pd"": 3.0, ""Se"": 4.0}",762.236,#00BFFF,monoclinic,{33},1.2547e-08
Jahnsite-(CaFeMg),CaFe2+Mg2Fe3+2(PO4)4(OH)2·8H2O,"{""Ca"": 1.0, ""Fe"": 3.0, ""Mg"": 2.0, ""P"": 4.0, ""O"": 26.0, ""H"": 18.0}",814.237,#556B2F,monoclinic,"{21,22,34,47,50}",3.7158e-08
Jahnsite-(CaMnFe),CaMn2+Fe2+2Fe3+2(PO4)4(OH)2·8H2O,"{""Ca"": 1.0, ""Mn"": 1.0, ""Fe"": 4.0, ""P"": 4.0, ""O"": 26.0, ""H"": 18.0}",876.41,#556B2F,monoclinic,"{22,34}",2.911e-09
Jahnsite-(CaMnMg),CaMn2+Mg2Fe3+2(PO4)4(OH)2·8H2O,"{""Ca"": 1.0, ""Mn"": 1.0, ""Mg"": 2.0, ""Fe"": 2.0, ""P"": 4.0, ""O"": 26.0, ""H"": 18.0}",813.33,#556B2F,monoclinic,"{22,34}",2.911e-09
Jahnsite-(CaMnMn),CaMn2+Mn2+2Fe3+2(PO4)4(OH)2·8H2O,"{""Ca"": 1.0, ""Mn"": 3.0, ""Fe"": 2.0, ""P"": 4.0, ""O"": 26.0, ""H"": 18.0}",874.596,#556B2F,monoclinic,"{22,34}",2.911e-09
Jahnsite-(CaMnZn),CaMn2+Zn2Fe3+2(PO4)4(OH)2·8H2O,"{""Ca"": 1.0, ""Mn"": 1.0, ""Zn"": 2.0, ""Fe"": 2.0, ""P"": 4.0, ""O"": 26.0, ""H"": 18.0}",895.48,#556B2F,monoclinic,{34},8.87e-10
Jahnsite-(MnMnFe),Mn2+Mn2+Fe2+2Fe3+2(PO4)4(OH)2·8H2O,"{""Mn"": 2.0, ""Fe"": 4.0, ""P"": 4.0, ""O"": 26.0, ""H"": 18.0}",891.27,#556B2F,monoclinic,{34},8.87e-10
Jahnsite-(MnMnMg),Mn2+Mn2+Mg2Fe3+2(PO4)4(OH)2·8H2O,"{""Mn"": 2.0, ""Mg"": 2.0, ""Fe"": 2.0, ""P"": 4.0, ""O"": 26.0, ""H"": 18.0}",828.19,#556B2F,monoclinic,{34},8.87e-10
Jahnsite-(MnMnMn),Mn2+Mn2+Mn2+2Fe3+2(PO4)4(OH)2·8H2O,"{""Mn"": 4.0, ""Fe"": 2.0, ""P"": 4.0, ""O"": 26.0, ""H"": 18.0}",889.456,#556B2F,unknown,"{32,34}",2.1e-09
Jahnsite-(MnMnZn),Mn2+Mn2+Zn2Fe3+2(PO4)4(OH)2·8H2O,"{""Mn"": 2.0, ""Zn"": 2.0, ""Fe"": 2.0, ""P"": 4.0, ""O"": 26.0, ""H"": 18.0}",910.34,#556B2F,monoclinic,{32},1.214e-09
Jahnsite-(NaFeMg),NaFe3+Mg2Fe3+2(PO4)4(OH)2·8H2O,"{""Na"": 1.0, ""Fe"": 3.0, ""Mg"": 2.0, ""P"": 4.0, ""O"": 26.0, ""H"": 18.0}",797.149,#556B2F,monoclinic,{34},1.773e-09
Jahnsite-(NaMnMn),NaMn2+(Mn2+Fe3+)Fe3+2(PO4)4(OH)2·8H2O,"{""Na"": 1.0, ""Mn"": 2.0, ""Fe"": 3.0, ""P"": 4.0, ""O"": 26.0, ""H"": 18.0}",858.415,#556B2F,monoclinic,{34},8.87e-10
Jaipurite,CoS,"{""Co"": 1.0, ""S"": 1.0}",90.993,#A9A9A9,hexagonal,{33},2.51e-10
Jakobssonite,CaAlF5,"{""Ca"": 1.0, ""Al"": 1.0, ""F"": 5.0}",162.05,#FFFFFF,monoclinic,{45},1.179e-09
Jalpaite,Ag3CuS2,"{""Ag"": 3.0, ""Cu"": 1.0, ""S"": 2.0}",451.276,#A9A9A9,tetragonal,{33},2.51e-10
Jamesonite,Pb4FeSb6S14,"{""Pb"": 4.0, ""Fe"": 1.0, ""Sb"": 6.0, ""S"": 14.0}",2064.045,#DAA520,monoclinic,"{33,40}",1.88339e-07
Jarandolite,CaB3O4(OH)3,"{""Ca"": 1.0, ""B"": 3.0, ""O"": 7.0, ""H"": 3.0}",187.525,#FFFFFF,monoclinic,{25},4.7619e-08
Jarosewichite,Mn3+Mn2+3(AsO4)(OH)6,"{""Mn"": 4.0, ""As"": 1.0, ""O"": 10.0, ""H"": 6.0}",460.712,#FFFFFF,orthorhombic,{47},7.508e-09
Jarosite,KFe3+3(SO4)2(OH)6,"{""K"": 1.0, ""Fe"": 3.0, ""S"": 2.0, ""O"": 14.0, ""H"": 6.0}",500.787,#556B2F,hexagonal,"{45,46,47,49}",9.918e-09
Jasmundite,Ca11O2(SiO4)4S,"{""Ca"": 11.0, ""O"": 18.0, ""Si"": 4.0, ""S"": 1.0}",873.24,#FFFFFF,tetragonal,{31},5.62e-10
Jasrouxite,Ag16Pb4(Sb25As15)Σ40S72,"{""Ag"": 16.0, ""Pb"": 4.0, ""Sb"": 1000.0, ""As"": 600.0, ""S"": 72.0}",171576.24,#708090,triclinic,{33},2.51e-10
Jaszczakite,[Bi3S3][AuS2],"{""Bi"": 3.0, ""S"": 5.0, ""Au"": 1.0}",984.21,#A9A9A9,orthorhombic,{33},2.51e-10
Javorieite,KFeCl3,"{""K"": 1.0, ""Fe"": 1.0, ""Cl"": 3.0}",201.293,#8B4513,orthorhombic,{47},1.5015e-07
Jeanbandyite,Fe3+Sn(OH)5O,"{""Fe"": 1.0, ""Sn"": 1.0, ""O"": 6.0, ""H"": 5.0}",275.589,#556B2F,cubic,{47},1.5015e-07
Jeankempite,Ca5(AsO4)2(AsO3OH)2(H2O)7,"{""Ca"": 5.0, ""As"": 4.0, ""O"": 23.0, ""H"": 16.0}",884.183,#FFFFFF,triclinic,{47},1.5015e-07
Jedwabite,Fe7Ta3,"{""Fe"": 7.0, ""Ta"": 3.0}",933.765,#8B4513,hexagonal,{26},4e-08
Jeffbenite,Mg3Al2Si3O12,"{""Mg"": 3.0, ""Al"": 2.0, ""Si"": 3.0, ""O"": 12.0}",403.122,#FFFFFF,tetragonal,{36},4.4674e-08
Jennite,Ca9(Si3O9)2(OH)6·8H2O,"{""Ca"": 9.0, ""Si"": 6.0, ""O"": 32.0, ""H"": 22.0}",1063.356,#FFFFFF,triclinic,"{31,47,51}",3.33275e-07
Jensenite,Cu2+3Te6+O6·2H2O,"{""Cu"": 3.0, ""Te"": 1.0, ""O"": 8.0, ""H"": 4.0}",450.262,#FFFFFF,monoclinic,{47},1.5015e-07
Jentschite,TlPbAs2SbS6,"{""Tl"": 1.0, ""Pb"": 1.0, ""As"": 2.0, ""Sb"": 1.0, ""S"": 6.0}",875.544,#708090,monoclinic,"{23,33}",3.5427e-08
Jeremejevite,Al6(BO3)5F3,"{""Al"": 6.0, ""B"": 5.0, ""O"": 15.0, ""F"": 3.0}",512.921,#FFFFFF,hexagonal,{22},2.024e-09
Jerrygibbsite,Mn2+9(SiO4)4(OH)2,"{""Mn"": 9.0, ""Si"": 4.0, ""O"": 18.0, ""H"": 2.0}",896.78,#FFFFFF,orthorhombic,{32},1.214e-09
Jervisite,NaSc3+Si2O6,"{""Na"": 1.0, ""Sc"": 1.0, ""Si"": 2.0, ""O"": 6.0}",220.11,#FFFFFF,monoclinic,{34},1.773e-08
Jezekite,Na8[(UO2)(CO3)3](SO4)2·3H2O,"{""Na"": 8.0, ""U"": 1.0, ""O"": 22.0, ""C"": 3.0, ""S"": 2.0, ""H"": 6.0}",880.129,#FFFFFF,hexagonal,"{47,55}",3.761e-09
Jianmuite,ZrTi4+Ti3+5Al3O16,"{""Zr"": 1.0, ""Ti"": 6.0, ""Al"": 3.0, ""O"": 16.0}",715.356,#FFFFFF,tetragonal,{},3e-07
Jianshuiite,MgMn4+3O7·3H2O,"{""Mg"": 1.0, ""Mn"": 3.0, ""O"": 10.0, ""H"": 6.0}",355.157,#FFFFFF,triclinic,{47},7.508e-09
Jimboite,Mn2+3(BO3)2,"{""Mn"": 3.0, ""B"": 2.0, ""O"": 6.0}",282.428,#FFB6C1,orthorhombic,"{22,23}",8.9964e-08
Jimkrieghite,Ca(C2H3O3)2,"{""Ca"": 1.0, ""C"": 4.0, ""H"": 6.0, ""O"": 6.0}",190.164,#FFFFFF,orthorhombic,{53},8.547e-08
Jimthompsonite,Mg5Si6O16(OH)2,"{""Mg"": 5.0, ""Si"": 6.0, ""O"": 18.0, ""H"": 2.0}",580.033,#FFFFFF,orthorhombic,"{6,40}",1.228912e-05
Jingsuiite,TiB2,"{""Ti"": 1.0, ""B"": 2.0}",69.487,#FFFFFF,hexagonal,{38},2.7778e-08
Jingwenite-(Y),YAlV4+(SiO4)O2(OH)2,"{""Y"": 1.0, ""Al"": 1.0, ""V"": 1.0, ""Si"": 1.0, ""O"": 8.0, ""H"": 2.0}",324.923,#FFFFFF,monoclinic,{22},4.0486e-08
Jinshajiangite,BaNaFe2+4Ti2(Si2O7)2O2(OH)2F,"{""Ba"": 1.0, ""Na"": 1.0, ""Fe"": 4.0, ""Ti"": 2.0, ""Si"": 4.0, ""O"": 18.0, ""H"": 2.0, ""F"": 1.0}",900.77,#556B2F,monoclinic,{35},6.89e-10
Joanneumite,Cu(C3N3O3H2)2(NH3)2,"{""Cu"": 1.0, ""C"": 6.0, ""N"": 8.0, ""O"": 6.0, ""H"": 10.0}",353.742,#FFFFFF,unknown,{52},1.38889e-07
Joaquinite-(Ce),NaBa2Fe2+Ti2Ce2(Si4O12)2O2(OH)·H2O,"{""Na"": 1.0, ""Ba"": 2.0, ""Fe"": 1.0, ""Ti"": 2.0, ""Ce"": 2.0, ""Si"": 8.0, ""O"": 28.0, ""H"": 3.0}",1405.145,#556B2F,monoclinic,"{23,35,40}",3.353087e-06
Joegoldsteinite,MnCr2S4,"{""Mn"": 1.0, ""Cr"": 2.0, ""S"": 4.0}",287.17,#A9A9A9,cubic,{5},2.128e-09
Joelbruggerite,Pb3Zn3Sb5+As2O13(OH),"{""Pb"": 3.0, ""Zn"": 3.0, ""Sb"": 1.0, ""As"": 2.0, ""O"": 14.0, ""H"": 1.0}",1314.338,#FFFFFF,hexagonal,{47},1.5015e-07
Joesmithite,Pb2+Ca2(Mg3Fe3+2)(Si6Be2)O22(OH)2,"{""Pb"": 1.0, ""Ca"": 2.0, ""Mg"": 3.0, ""Fe"": 2.0, ""Si"": 6.0, ""Be"": 2.0, ""O"": 24.0, ""H"": 2.0}",1044.4874,#556B2F,monoclinic,{32},2.4272e-08
Johachidolite,CaAlB3O7,"{""Ca"": 1.0, ""Al"": 1.0, ""B"": 3.0, ""O"": 7.0}",211.483,#FFFFFF,orthorhombic,{35},1.3774e-08
Johannite,Cu(UO2)2(SO4)2(OH)2·8H2O,"{""Cu"": 1.0, ""U"": 2.0, ""O"": 22.0, ""S"": 2.0, ""H"": 18.0}",973.848,#FFFFFF,triclinic,"{47,55}",3.761e-09
Johannsenite,CaMnSi2O6,"{""Ca"": 1.0, ""Mn"": 1.0, ""Si"": 2.0, ""O"": 6.0}",247.18,#FFFFFF,monoclinic,{32},1.214e-09
Johillerite,NaCuMgMg2(AsO4)3,"{""Na"": 1.0, ""Cu"": 1.0, ""Mg"": 3.0, ""As"": 3.0, ""O"": 12.0}",576.205,#FFFFFF,monoclinic,"{46,47,56}",4.12388e-07
Johnbaumite,Ca5(AsO4)3(OH),"{""Ca"": 5.0, ""As"": 3.0, ""O"": 13.0, ""H"": 1.0}",634.151,#FFFFFF,monoclinic,"{32,47}",1.74422e-07
Johninnesite,Na2Mn2+9Mg7(AsO4)2(Si6O17)2(OH)8,"{""Na"": 2.0, ""Mn"": 9.0, ""Mg"": 7.0, ""As"": 2.0, ""O"": 50.0, ""Si"": 12.0, ""H"": 8.0}",2005.435,#FFFFFF,triclinic,{32},1.214e-09
Johnkoivulaite,Cs[Be2B]Mg2Si6O18,"{""Cs"": 1.0, ""Be"": 2.0, ""B"": 1.0, ""Mg"": 2.0, ""Si"": 6.0, ""O"": 18.0}",666.8464,#FFFFFF,hexagonal,{34},1.773e-08
Johnsenite-(Ce),Na12Ce3Ca6Mn3Zr3WSi25O73(CO3)(OH)2,"{""Na"": 12.0, ""Ce"": 3.0, ""Ca"": 6.0, ""Mn"": 3.0, ""Zr"": 3.0, ""W"": 1.0, ""Si"": 25.0, ""O"": 78.0, ""C"": 1.0, ""H"": 2.0}",3523.108,#FFFFFF,hexagonal,{35},6.89e-10
Johnsomervilleite,Na3CaFe2+11(PO4)9,"{""Na"": 3.0, ""Ca"": 1.0, ""Fe"": 11.0, ""P"": 9.0, ""O"": 36.0}",1578.073,#556B2F,hexagonal,"{5,34,40}",9.5285e-07
Johntomaite,BaFe2+2Fe3+2(PO4)3(OH)3,"{""Ba"": 1.0, ""Fe"": 4.0, ""P"": 3.0, ""O"": 15.0, ""H"": 3.0}",696.641,#556B2F,monoclinic,{34},1.773e-09
Jokokuite,Mn2+(SO4)·5H2O,"{""Mn"": 1.0, ""S"": 1.0, ""O"": 9.0, ""H"": 10.0}",241.069,#FFFFFF,triclinic,"{47,55}",3.761e-09
Joliotite,(UO2)(CO3)·2H2O,"{""U"": 1.0, ""O"": 7.0, ""C"": 1.0, ""H"": 4.0}",366.066,#FFFFFF,orthorhombic,{47},1.5015e-07
Jolliffeite,NiAsSe,"{""Ni"": 1.0, ""As"": 1.0, ""Se"": 1.0}",212.586,#7FFF00,cubic,{33},1.2547e-08
Jonlarsenite,Al4Cu9,"{""Al"": 4.0, ""Cu"": 9.0}",679.842,#00BFFF,cubic,{},1e-06
Joosteite,Mn2+Mn3+O(PO4),"{""Mn"": 2.0, ""O"": 5.0, ""P"": 1.0}",220.845,#FFB6C1,monoclinic,"{21,32,34,40,47}",4.86156e-07
Jordanite,Pb14As6S23,"{""Pb"": 14.0, ""As"": 6.0, ""S"": 23.0}",4087.712,#708090,monoclinic,"{11,12,33}",7.357e-09
Jordisite,MoS2,"{""Mo"": 1.0, ""S"": 2.0}",160.07,#A9A9A9,unknown,{12},1.55e-09
Jorgensenite,Na2Sr14Na2Al12F64(OH)4,"{""Na"": 4.0, ""Sr"": 14.0, ""Al"": 12.0, ""F"": 64.0, ""O"": 4.0, ""H"": 4.0}",2926.324,#FFFFFF,monoclinic,{23},8.794e-08
Jorgkellerite,Na3Mn3+3(PO4)2(CO3)O2·5H2O,"{""Na"": 3.0, ""Mn"": 3.0, ""P"": 2.0, ""O"": 18.0, ""C"": 1.0, ""H"": 10.0}",605.805,#FFFFFF,hexagonal,{47},7.508e-09
Joseite-A,Bi4TeS2,"{""Bi"": 4.0, ""Te"": 1.0, ""S"": 2.0}",1027.64,#A9A9A9,unknown,{33},2.51e-10
Joseite-B,Bi4Te2S,"{""Bi"": 4.0, ""Te"": 2.0, ""S"": 1.0}",1123.18,#A9A9A9,unknown,"{31,33}",8.13e-10
Joteite,Ca2CuAl(AsO4)[AsO3(OH)]2(OH)2·5H2O,"{""Ca"": 2.0, ""Cu"": 1.0, ""Al"": 1.0, ""As"": 3.0, ""O"": 19.0, ""H"": 14.0}",713.543,#FFFFFF,triclinic,{47},1.5015e-07
Jouravskite,Ca3Mn4+(SO4)(CO3)(OH)6·12H2O,"{""Ca"": 3.0, ""Mn"": 1.0, ""S"": 1.0, ""O"": 25.0, ""C"": 1.0, ""H"": 30.0}",649.458,#FFFFFF,hexagonal,"{32,45,47}",3.96e-09
Juabite,CaCu10(Te4+O3)4(AsO4)4(OH)2·4H2O,"{""Ca"": 1.0, ""Cu"": 10.0, ""Te"": 4.0, ""O"": 34.0, ""As"": 4.0, ""H"": 10.0}",2039.672,#FFFFFF,triclinic,{47},1.5015e-07
Juangodoyite,Na2Cu(CO3)2,"{""Na"": 2.0, ""Cu"": 1.0, ""C"": 2.0, ""O"": 6.0}",229.542,#FFFFFF,monoclinic,{47},1.5015e-07
Juansilvaite,Na5Al3[AsO3(OH)]4[AsO2(OH)2]2(SO4)2·4H2O,"{""Na"": 5.0, ""Al"": 3.0, ""As"": 6.0, ""O"": 36.0, ""H"": 16.0, ""S"": 2.0}",1301.64,#FFFFFF,monoclinic,{47},3.003e-09
Julgoldite-(Fe2+),Ca2Fe2+Fe3+2(Si2O7)(SiO4)(OH)2·H2O,"{""Ca"": 2.0, ""Fe"": 3.0, ""Si"": 3.0, ""O"": 14.0, ""H"": 4.0}",559.964,#556B2F,monoclinic,"{8,22}",8.439728e-06
Julgoldite-(Fe3+),Ca2Fe3+Fe3+2(Si2O7)(SiO4)O(OH)·H2O,"{""Ca"": 2.0, ""Fe"": 3.0, ""Si"": 3.0, ""O"": 14.0, ""H"": 3.0}",558.956,#556B2F,monoclinic,{8},8.387097e-06
Julgoldite-(Mg),Ca2MgFe3+2(Si2O7)(SiO4)(OH)2·H2O,"{""Ca"": 2.0, ""Mg"": 1.0, ""Fe"": 2.0, ""Si"": 3.0, ""O"": 14.0, ""H"": 4.0}",528.424,#556B2F,unknown,{13},1.9403e-07
Julienite,Na2Co(SCN)4·8H2O,"{""Na"": 2.0, ""Co"": 1.0, ""S"": 4.0, ""C"": 4.0, ""N"": 4.0, ""H"": 16.0, ""O"": 8.0}",481.345,#FFFFFF,monoclinic,"{47,50}",3.736e-09
Jungite,Ca2Zn4Fe3+8(PO4)9(OH)9·16H2O,"{""Ca"": 2.0, ""Zn"": 4.0, ""Fe"": 8.0, ""P"": 9.0, ""O"": 61.0, ""H"": 41.0}",2084.469,#556B2F,orthorhombic,{22},4.049e-09
Junitoite,CaZn2Si2O7·H2O,"{""Ca"": 1.0, ""Zn"": 2.0, ""Si"": 2.0, ""O"": 8.0, ""H"": 2.0}",357.016,#FFFFFF,orthorhombic,"{32,47}",1.74422e-07
Juonniite,CaMgSc(PO4)2(OH)·4H2O,"{""Ca"": 1.0, ""Mg"": 1.0, ""Sc"": 1.0, ""P"": 2.0, ""O"": 13.0, ""H"": 9.0}",388.346,#FFFFFF,orthorhombic,"{35,36}",4.814e-09
Jurbanite,Al(SO4)(OH)·5H2O,"{""Al"": 1.0, ""S"": 1.0, ""O"": 10.0, ""H"": 11.0}",230.12,#FFFFFF,monoclinic,{55},7.58e-10
Jusite,Na2Ca15Al4Si16O54·17H2O,"{""Na"": 2.0, ""Ca"": 15.0, ""Al"": 4.0, ""Si"": 16.0, ""O"": 71.0, ""H"": 34.0}",2374.639,#FFFFFF,unknown,{31},3.6517e-08
Juxingite,Bi6Cu140Fe30S125,"{""Bi"": 6.0, ""Cu"": 140.0, ""Fe"": 30.0, ""S"": 125.0}",15833.17,#DAA520,cubic,{},2e-08
Kaatialaite,Fe3+[AsO2(OH)2]3·5H2O,"{""Fe"": 1.0, ""As"": 3.0, ""O"": 17.0, ""H"": 16.0}",568.722,#556B2F,monoclinic,{47},1.5015e-07
Kabalovite,Fe2+3Fe3+4(PO4)6,"{""Fe"": 7.0, ""P"": 6.0, ""O"": 24.0}",960.735,#8B4513,triclinic,{51},7.812e-09
Kadyrelite,([Hg1+]2)3OBr3(OH),"{""Hg"": 6.0, ""O"": 2.0, ""Br"": 3.0, ""H"": 1.0}",1476.258,#FFFFFF,cubic,{33},1.2547e-08
Kaersutite,NaCa2(Mg3AlTi4+)(Si6Al2)O22O2,"{""Na"": 1.0, ""Ca"": 2.0, ""Mg"": 3.0, ""Al"": 3.0, ""Ti"": 1.0, ""Si"": 6.0, ""O"": 24.0}",857.36,#FFFFFF,monoclinic,"{5,8,9,35,37,40}",4.838692e-06
Kahlenbergite,KAl11O17,"{""K"": 1.0, ""Al"": 11.0, ""O"": 17.0}",607.883,#FFFFFF,hexagonal,"{51,56}",2.07277e-07
Kahlerite,Fe2+(UO2)2(AsO4)2·12H2O,"{""Fe"": 1.0, ""U"": 2.0, ""O"": 24.0, ""As"": 2.0, ""H"": 24.0}",1089.917,#556B2F,unknown,{47},1.5015e-07
Kainosite-(Y),Ca2Y2(SiO3)4(CO3)·H2O,"{""Ca"": 2.0, ""Y"": 2.0, ""Si"": 4.0, ""O"": 16.0, ""C"": 1.0, ""H"": 2.0}",640.319,#FFFFFF,orthorhombic,"{34,35,47}",1.81655e-07
Kainotropite,Cu4Fe3+O2(V2O7)(VO4),"{""Cu"": 4.0, ""Fe"": 1.0, ""O"": 13.0, ""V"": 3.0}",670.842,#556B2F,orthorhombic,{45},2.3585e-08
Kaitianite,Ti3+2Ti4+O5,"{""Ti"": 3.0, ""O"": 5.0}",223.596,#FFFFFF,monoclinic,{3},6.25e-08
Kalborsite,K6Al4BSi6O20(OH)4Cl,"{""K"": 6.0, ""Al"": 4.0, ""B"": 1.0, ""Si"": 6.0, ""O"": 24.0, ""H"": 4.0, ""Cl"": 1.0}",945.294,#FFFFFF,tetragonal,{35},1.3774e-08
Kalgoorlieite,As2Te3,"{""As"": 2.0, ""Te"": 3.0}",532.644,#808080,monoclinic,{33},1.2547e-08
Kaliborite,KHMg2B12O16(OH)10·4H2O,"{""K"": 1.0, ""H"": 19.0, ""Mg"": 2.0, ""B"": 12.0, ""O"": 30.0}",716.55,#FFFFFF,monoclinic,{25},4.7619e-08
Kalicinite,KH(CO3),"{""K"": 1.0, ""H"": 1.0, ""C"": 1.0, ""O"": 3.0}",100.114,#FFFFFF,monoclinic,"{35,36,53}",1.33608e-07
Kalifersite,K5Fe3+7Si20O50(OH)6·12H2O,"{""K"": 5.0, ""Fe"": 7.0, ""Si"": 20.0, ""O"": 68.0, ""H"": 30.0}",2266.277,#556B2F,triclinic,"{35,47}",2.29494e-07
Kalininite,ZnCr2S4,"{""Zn"": 1.0, ""Cr"": 2.0, ""S"": 4.0}",297.612,#A9A9A9,cubic,"{5,33,40}",1.90466e-07
Kalinite,KAl(SO4)2·11H2O,"{""K"": 1.0, ""Al"": 1.0, ""S"": 2.0, ""O"": 19.0, ""H"": 22.0}",456.357,#FFFFFF,unknown,"{21,45,47}",6.006e-09
Kaliochalcite,KCu2(SO4)2[(OH)(H2O)],"{""K"": 1.0, ""Cu"": 2.0, ""S"": 2.0, ""O"": 10.0, ""H"": 3.0}",393.324,#FFFFFF,monoclinic,"{32,45,46}",4.803e-09
Kaliophilite,KAlSiO4,"{""K"": 1.0, ""Al"": 1.0, ""Si"": 1.0, ""O"": 4.0}",158.161,#FFFFFF,hexagonal,"{9,35}",1.2952e-07
Kalistrontite,K2Sr(SO4)2,"{""K"": 2.0, ""Sr"": 1.0, ""S"": 2.0, ""O"": 8.0}",357.928,#FFFFFF,hexagonal,"{23,25,47,51}",4.0694e-08
Kalithallite,K3Tl3+Cl6·2H2O,"{""K"": 3.0, ""Tl"": 1.0, ""Cl"": 6.0, ""H"": 4.0, ""O"": 2.0}",570.404,#FFFFFF,tetragonal,{45},2.3585e-08
Kalsilite,KAlSiO4,"{""K"": 1.0, ""Al"": 1.0, ""Si"": 1.0, ""O"": 4.0}",158.161,#FFFFFF,hexagonal,"{7,35,36,40,51}",1.3456734e-05
Kalungaite,PdAsSe,"{""Pd"": 1.0, ""As"": 1.0, ""Se"": 1.0}",260.313,#808080,cubic,{33},1.2547e-08
Kalyuzhnyite-(Ce),NaKCaSrCeTi(Si8O21)OF(H2O)3,"{""Na"": 1.0, ""K"": 1.0, ""Ca"": 1.0, ""Sr"": 1.0, ""Ce"": 1.0, ""Ti"": 1.0, ""Si"": 8.0, ""O"": 25.0, ""F"": 1.0, ""H"": 6.0}",1027.474,#FFFFFF,monoclinic,{},5e-08
Kamaishilite,Ca2(SiAl2)O6(OH)2,"{""Ca"": 2.0, ""Si"": 1.0, ""Al"": 2.0, ""O"": 8.0, ""H"": 2.0}",292.213,#FFFFFF,tetragonal,{31},3.6517e-08
Kamarizaite,Fe3+3(AsO4)2(OH)3·3H2O,"{""Fe"": 3.0, ""As"": 2.0, ""O"": 14.0, ""H"": 9.0}",550.437,#556B2F,orthorhombic,"{47,55}",1.88029e-07
Kambaldaite,NaNi4(CO3)3(OH)3·3H2O,"{""Na"": 1.0, ""Ni"": 4.0, ""C"": 3.0, ""O"": 15.0, ""H"": 9.0}",542.852,#FFFFFF,hexagonal,{47},1.5015e-07
Kamchatkite,KCu3O(SO4)2Cl,"{""K"": 1.0, ""Cu"": 3.0, ""O"": 9.0, ""S"": 2.0, ""Cl"": 1.0}",473.297,#FFFFFF,orthorhombic,"{45,47}",3.475e-09
Kamenevite,K2TiSi3O9·H2O,"{""K"": 2.0, ""Ti"": 1.0, ""Si"": 3.0, ""O"": 10.0, ""H"": 2.0}",372.324,#FFFFFF,orthorhombic,{35},4.132e-09
Kamiokite,Fe2+2Mo4+3O8,"{""Fe"": 2.0, ""Mo"": 3.0, ""O"": 8.0}",527.532,#8B4513,hexagonal,"{23,40}",1.1163183e-05
Kamotoite-(Y),Y2O4(UO2)4(CO3)3·14H2O,"{""Y"": 2.0, ""O"": 35.0, ""U"": 4.0, ""C"": 3.0, ""H"": 28.0}",1754.154,#FFFFFF,monoclinic,{47},1.5015e-07
Kampfite,Ba12(Si11Al5)O31(CO3)8Cl5,"{""Ba"": 12.0, ""Si"": 11.0, ""Al"": 5.0, ""O"": 55.0, ""C"": 8.0, ""Cl"": 5.0}",3245.088,#FFFFFF,monoclinic,{32},2.4272e-08
Kamphaugite-(Y),CaY(CO3)2(OH)·H2O,"{""Ca"": 1.0, ""Y"": 1.0, ""C"": 2.0, ""O"": 8.0, ""H"": 3.0}",284.022,#FFFFFF,tetragonal,"{31,32,35}",6.6136e-08
Kanatzidisite,(SbBiS3)2Te2,"{""Sb"": 2.0, ""Bi"": 2.0, ""S"": 6.0, ""Te"": 2.0}",1109.04,#A9A9A9,monoclinic,{},2e-08
Kanemite,NaSi2O4(OH)·3H2O,"{""Na"": 1.0, ""Si"": 2.0, ""O"": 8.0, ""H"": 7.0}",214.208,#FFFFFF,orthorhombic,"{25,35}",1.53483e-07