name,formula,elements,density,color,crystal
Tavorite,LiFe3+(PO4)(OH),"{""Li"": 1.0, ""Fe"": 1.0, ""P"": 1.0, ""O"": 5.0, ""H"": 1.0}",174.762,#556B2F,triclinic
Teepleite,Na2B(OH)4Cl,"{""Na"": 2.0, ""B"": 1.0, ""O"": 4.0, ""H"": 4.0, ""Cl"": 1.0}",160.268,#FFFFFF,tetragonal
Teineite,Cu2+(Te4+O3)·2H2O,"{""Cu"": 1.0, ""Te"": 1.0, ""O"": 5.0, ""H"": 4.0}",275.173,#FFFFFF,orthorhombic
Tellurantimony,Sb2Te3,"{""Sb"": 2.0, ""Te"": 3.0}",626.32,#A9A9A9,hexagonal
Tellurite,TeO2,"{""Te"": 1.0, ""O"": 2.0}",159.598,#FFFFFF,orthorhombic
Tellurium,Te,"{""Te"": 1.0}",127.6,#FFFFFF,hexagonal
Tellurobismuthite,Bi2Te3,"{""Bi"": 2.0, ""Te"": 3.0}",800.76,#D2B48C,hexagonal
Tellurohauchecornite,Ni9BiTeS8,"{""Ni"": 9.0, ""Bi"": 1.0, ""Te"": 1.0, ""S"": 8.0}",1121.297,#A9A9A9,tetragonal
Telluromandarinoite,Fe3+2(Te4+O3)3·6H2O,"{""Fe"": 2.0, ""Te"": 3.0, ""O"": 15.0, ""H"": 12.0}",746.571,#556B2F,monoclinic
Telluronevskite,Bi3TeSe2,"{""Bi"": 3.0, ""Te"": 1.0, ""Se"": 2.0}",912.482,#D2B48C,hexagonal
Telluropalladinite,Pd9Te4,"{""Pd"": 9.0, ""Te"": 4.0}",1468.18,#FFFFFF,monoclinic
Telyushenkoite,CsNa6Be2Al3Si15O39F2,"{""Cs"": 1.0, ""Na"": 6.0, ""Be"": 2.0, ""Al"": 3.0, ""Si"": 15.0, ""O"": 39.0, ""F"": 2.0}",1453.0524,#FFFFFF,hexagonal
Temagamite,Pd3HgTe3,"{""Pd"": 3.0, ""Hg"": 1.0, ""Te"": 3.0}",902.65,#FFFFFF,orthorhombic
Tengchongite,Ca(UO2)6(MoO4OH)2O2(OH)4·9H2O,"{""Ca"": 1.0, ""U"": 6.0, ""O"": 37.0, ""Mo"": 2.0, ""H"": 24.0}",2276.313,#FFFFFF,orthorhombic
Tengerite-(Y),Y2(CO3)3·2-3H2O,"{""Y"": 2.0, ""C"": 3.0, ""O"": 12.0, ""H"": 6.0}",411.881,#FFFFFF,orthorhombic
Tennantite-(Cd),Cu6(Cu4Cd2)As4S13,"{""Cu"": 10.0, ""Cd"": 2.0, ""As"": 4.0, ""S"": 13.0}",1576.748,#FFD700,cubic
Tennantite-(Cu),Cu6(Cu4Cu2)As4S13,"{""Cu"": 12.0, ""As"": 4.0, ""S"": 13.0}",1479.02,#FFD700,cubic
Tennantite-(Fe),Cu6(Cu4Fe2)As4S13,"{""Cu"": 10.0, ""Fe"": 2.0, ""As"": 4.0, ""S"": 13.0}",1463.618,#DAA520,cubic
Tennantite-(Hg),Cu6(Cu4Hg2)As4S13,"{""Cu"": 10.0, ""Hg"": 2.0, ""As"": 4.0, ""S"": 13.0}",1753.108,#FFD700,cubic
Tennantite-(Ni),Cu6(Cu4Ni2)As4S13,"{""Cu"": 10.0, ""Ni"": 2.0, ""As"": 4.0, ""S"": 13.0}",1469.314,#FFD700,cubic
Tenorite,CuO,"{""Cu"": 1.0, ""O"": 1.0}",79.545,#00BFFF,monoclinic
Terlinguacreekite,Hg2+3O2Cl2,"{""Hg"": 3.0, ""O"": 2.0, ""Cl"": 2.0}",704.668,#FFFFFF,orthorhombic
Terlinguaite,Hg2OCl,"{""Hg"": 2.0, ""O"": 1.0, ""Cl"": 1.0}",452.629,#FFFFFF,monoclinic
Ternesite,Ca5(SiO4)2(SO4),"{""Ca"": 5.0, ""Si"": 2.0, ""O"": 12.0, ""S"": 1.0}",480.608,#FFFFFF,orthorhombic
Ternovite,MgNb4O11·8-12H2O,"{""Mg"": 1.0, ""Nb"": 4.0, ""O"": 23.0, ""H"": 24.0}",788.098,#FFFFFF,
Terranovaite,NaCaAl3Si17O40·~8H2O,"{""Na"": 1.0, ""Ca"": 1.0, ""Al"": 3.0, ""Si"": 17.0, ""O"": 48.0, ""H"": 16.0}",1405.539,#FFFFFF,orthorhombic
Terskite,Na4ZrSi6O16·2H2O,"{""Na"": 4.0, ""Zr"": 1.0, ""Si"": 6.0, ""O"": 18.0, ""H"": 4.0}",643.708,#FFFFFF,orthorhombic
Tertschite,Ca4B10O19·20H2O,"{""Ca"": 4.0, ""B"": 10.0, ""O"": 39.0, ""H"": 40.0}",932.693,#FFFFFF,
Teruggite,Ca4Mg[AsB6O11(OH)6]2·14H2O,"{""Ca"": 4.0, ""Mg"": 1.0, ""As"": 2.0, ""B"": 12.0, ""O"": 48.0, ""H"": 40.0}",1272.453,#FFFFFF,monoclinic
Teschemacherite,(NH4)H(CO3),"{""N"": 1.0, ""H"": 5.0, ""C"": 1.0, ""O"": 3.0}",79.055,#FFFFFF,orthorhombic
Testibiopalladite,PdSbTe,"{""Pd"": 1.0, ""Sb"": 1.0, ""Te"": 1.0}",355.78,#A9A9A9,cubic
Tetra-auricupride,CuAu,"{""Cu"": 1.0, ""Au"": 1.0}",260.516,#00BFFF,
Tetradymite,Bi2Te2S,"{""Bi"": 2.0, ""Te"": 2.0, ""S"": 1.0}",705.22,#A9A9A9,hexagonal
Tetraferriannite,KFe2+3(Si3Fe3+)O10(OH)2,"{""K"": 1.0, ""Fe"": 4.0, ""Si"": 3.0, ""O"": 12.0, ""H"": 2.0}",540.737,#556B2F,hexagonal
Tetraferriphlogopite,KMg3(Si3Fe3+)O10(OH)2,"{""K"": 1.0, ""Mg"": 3.0, ""Si"": 3.0, ""Fe"": 1.0, ""O"": 12.0, ""H"": 2.0}",446.117,#556B2F,
Tetraferroplatinum,PtFe,"{""Pt"": 1.0, ""Fe"": 1.0}",250.925,#8B4513,tetragonal
Tetrahedrite-(Cd),Cu6(Cu4Cd2)Sb4S13,"{""Cu"": 10.0, ""Cd"": 2.0, ""Sb"": 4.0, ""S"": 13.0}",1764.1,#A9A9A9,cubic
Tetrahedrite-(Cu),Cu6(Cu4Cu2)Sb4S13,"{""Cu"": 12.0, ""Sb"": 4.0, ""S"": 13.0}",1666.372,#A9A9A9,cubic
Tetrahedrite-(Fe),Cu6(Cu4Fe2)Sb4S13,"{""Cu"": 10.0, ""Fe"": 2.0, ""Sb"": 4.0, ""S"": 13.0}",1650.97,#DAA520,
Tetrahedrite-(Hg),Cu6(Cu4Hg2)Sb4S13,"{""Cu"": 10.0, ""Hg"": 2.0, ""Sb"": 4.0, ""S"": 13.0}",1940.46,#A9A9A9,cubic
Tetrahedrite-(Ni),Cu6(Cu4Ni2)Sb4S13,"{""Cu"": 10.0, ""Ni"": 2.0, ""Sb"": 4.0, ""S"": 13.0}",1656.666,#A9A9A9,cubic
Tetrarooseveltite,Bi(AsO4),"{""Bi"": 1.0, ""As"": 1.0, ""O"": 4.0}",347.898,#808080,tetragonal
Tetrataenite,FeNi,"{""Fe"": 1.0, ""Ni"": 1.0}",114.538,#7FFF00,monoclinic
Thalenite-(Y),Y3Si3O10F,"{""Y"": 3.0, ""Si"": 3.0, ""O"": 10.0, ""F"": 1.0}",529.961,#FFFFFF,monoclinic
Thalhammerite,Pd9Ag2Bi2S4,"{""Pd"": 9.0, ""Ag"": 2.0, ""Bi"": 2.0, ""S"": 4.0}",1719.72,#A9A9A9,tetragonal
Thalliumpharmacosiderite,TlFe4[(AsO4)3(OH)4]·4H2O,"{""Tl"": 1.0, ""Fe"": 4.0, ""As"": 3.0, ""O"": 20.0, ""H"": 12.0}",984.602,#556B2F,cubic
Thaumasite,Ca3Si(OH)6(CO3)(SO4)·12H2O,"{""Ca"": 3.0, ""Si"": 1.0, ""O"": 25.0, ""H"": 30.0, ""C"": 1.0, ""S"": 1.0}",622.605,#FFFFFF,hexagonal
Thebaite-(NH4),(NH4)3Al(C2O4)(PO3OH)2(H2O),"{""N"": 3.0, ""H"": 16.0, ""Al"": 1.0, ""C"": 2.0, ""O"": 13.0, ""P"": 2.0}",379.088,#FFFFFF,monoclinic
Thenardite,Na2(SO4),"{""Na"": 2.0, ""S"": 1.0, ""O"": 4.0}",142.036,#FFFF00,orthorhombic
Theoparacelsite,Cu3(OH)2As2O7,"{""Cu"": 3.0, ""O"": 9.0, ""H"": 2.0, ""As"": 2.0}",486.489,#FFFFFF,orthorhombic
Theophrastite,Ni(OH)2,"{""Ni"": 1.0, ""O"": 2.0, ""H"": 2.0}",92.707,#7FFF00,hexagonal
Therasiaite,(NH4)3KNa2Fe2+Fe3+(SO4)3Cl5,"{""N"": 3.0, ""H"": 12.0, ""K"": 1.0, ""Na"": 2.0, ""Fe"": 2.0, ""S"": 3.0, ""O"": 12.0, ""Cl"": 5.0}",716.303,#556B2F,monoclinic
Theresemagnanite,NaCo4(SO4)(OH)6Cl·6H2O,"{""Na"": 1.0, ""Co"": 4.0, ""S"": 1.0, ""O"": 16.0, ""H"": 18.0, ""Cl"": 1.0}",600.36,#FFFFFF,hexagonal
Thermaerogenite,CuAl2O4,"{""Cu"": 1.0, ""Al"": 2.0, ""O"": 4.0}",181.506,#00BFFF,cubic
Thermessaite,K2AlF3(SO4),"{""K"": 2.0, ""Al"": 1.0, ""F"": 3.0, ""S"": 1.0, ""O"": 4.0}",258.228,#FFFFFF,orthorhombic
Thermessaite-(NH4),(NH4)2AlF3(SO4),"{""N"": 2.0, ""H"": 8.0, ""Al"": 1.0, ""F"": 3.0, ""S"": 1.0, ""O"": 4.0}",216.11,#FFFFFF,orthorhombic
Thermonatrite,Na2(CO3)·H2O,"{""Na"": 2.0, ""C"": 1.0, ""O"": 4.0, ""H"": 2.0}",124.003,#FFFFFF,orthorhombic
Theuerdankite,Ag3(AsO4),"{""Ag"": 3.0, ""As"": 1.0, ""O"": 4.0}",462.528,#C0C0C0,cubic
Thionasilite,Na2Si2S2O3,"{""Na"": 2.0, ""Si"": 2.0, ""S"": 2.0, ""O"": 3.0}",214.267,#FFFFFF,orthorhombic
Thomasclarkite-(Y),NaY(HCO3)(OH)3·4H2O,"{""Na"": 1.0, ""Y"": 1.0, ""H"": 12.0, ""C"": 1.0, ""O"": 10.0}",295.993,#FFFFFF,monoclinic
Thometzekite,PbCu2+2(AsO4)2·2H2O,"{""Pb"": 1.0, ""Cu"": 2.0, ""As"": 2.0, ""O"": 10.0, ""H"": 4.0}",648.158,#FFFFFF,monoclinic
Thomsenolite,NaCaAlF6·H2O,"{""Na"": 1.0, ""Ca"": 1.0, ""Al"": 1.0, ""F"": 6.0, ""H"": 2.0, ""O"": 1.0}",222.053,#FFFFFF,monoclinic
Thomsonite-Ca,NaCa2(Al5Si5)O20·6H2O,"{""Na"": 1.0, ""Ca"": 2.0, ""Al"": 5.0, ""Si"": 5.0, ""O"": 26.0, ""H"": 12.0}",806.551,#FFFFFF,orthorhombic
Thomsonite-Sr,NaSr2(Al5Si5)O20·6-7H2O,"{""Na"": 1.0, ""Sr"": 2.0, ""Al"": 5.0, ""Si"": 5.0, ""O"": 27.0, ""H"": 14.0}",919.65,#FFFFFF,orthorhombic
Thorasphite,Th2H(AsO4)2(PO4)·6H2O,"{""Th"": 2.0, ""H"": 13.0, ""As"": 2.0, ""O"": 18.0, ""P"": 1.0}",945.984,#FFFFFF,orthorhombic
Thorbastnasite,ThCa(CO3)2F2·3H2O,"{""Th"": 1.0, ""Ca"": 1.0, ""C"": 2.0, ""O"": 9.0, ""F"": 2.0, ""H"": 6.0}",484.175,#FFFFFF,hexagonal
Thorianite,ThO2,"{""Th"": 1.0, ""O"": 2.0}",264.038,#FFFFFF,cubic
Thorikosite,Pb3O3Sb3+(OH)Cl2,"{""Pb"": 3.0, ""O"": 4.0, ""Sb"": 1.0, ""H"": 1.0, ""Cl"": 2.0}",879.264,#FFFFFF,tetragonal
Thorite,Th(SiO4),"{""Th"": 1.0, ""Si"": 1.0, ""O"": 4.0}",324.121,#FFFFFF,tetragonal
Thornasite,Na12Th3(Si8O19)4·18H2O,"{""Na"": 12.0, ""Th"": 3.0, ""Si"": 32.0, ""O"": 94.0, ""H"": 36.0}",3410.914,#FFFFFF,hexagonal
Thorneite,Pb6(Te2O10)(CO3)Cl2(H2O),"{""Pb"": 6.0, ""Te"": 2.0, ""O"": 14.0, ""C"": 1.0, ""Cl"": 2.0, ""H"": 2.0}",1807.313,#FFFFFF,monoclinic
Thortveitite,Sc2Si2O7,"{""Sc"": 2.0, ""Si"": 2.0, ""O"": 7.0}",258.075,#FFFFFF,monoclinic
Threadgoldite,Al(UO2)2(PO4)2(OH)·8H2O,"{""Al"": 1.0, ""U"": 2.0, ""O"": 21.0, ""P"": 2.0, ""H"": 17.0}",918.105,#FFFFFF,monoclinic
Thunderbayite,TlAg3Au3Sb7S6,"{""Tl"": 1.0, ""Ag"": 3.0, ""Au"": 3.0, ""Sb"": 7.0, ""S"": 6.0}",2163.58,#A9A9A9,triclinic
Tianhongqiite,CrTiO3(OH),"{""Cr"": 1.0, ""Ti"": 1.0, ""O"": 4.0, ""H"": 1.0}",164.867,#FFFFFF,monoclinic
Tianhuixinite,(MoO3)3·H2O,"{""Mo"": 3.0, ""O"": 10.0, ""H"": 2.0}",449.856,#FFFFFF,hexagonal
Tiemannite,HgSe,"{""Hg"": 1.0, ""Se"": 1.0}",279.561,#FFFFFF,cubic
Tiettaite,K4Na12Fe3+2Si16O41(OH)4·2H2O,"{""K"": 4.0, ""Na"": 12.0, ""Fe"": 2.0, ""Si"": 16.0, ""O"": 47.0, ""H"": 8.0}",1753.339,#556B2F,orthorhombic
Tikhonenkovite,SrAlF4(OH)·H2O,"{""Sr"": 1.0, ""Al"": 1.0, ""F"": 4.0, ""O"": 2.0, ""H"": 3.0}",225.616,#FFFFFF,monoclinic
Tilasite,CaMg(AsO4)F,"{""Ca"": 1.0, ""Mg"": 1.0, ""As"": 1.0, ""O"": 4.0, ""F"": 1.0}",222.299,#FFFFFF,monoclinic
Tilkerodeite,Pd2HgSe3,"{""Pd"": 2.0, ""Hg"": 1.0, ""Se"": 3.0}",650.343,#FFFFFF,hexagonal
Tilleyite,Ca5Si2O7(CO3)2,"{""Ca"": 5.0, ""Si"": 2.0, ""O"": 13.0, ""C"": 2.0}",488.569,#FFFFFF,monoclinic
Tillmannsite,HgAg3(VO4),"{""Hg"": 1.0, ""Ag"": 3.0, ""V"": 1.0, ""O"": 4.0}",639.138,#FFFFFF,tetragonal
Timroseite,Pb2Cu5(TeO6)2(OH)2,"{""Pb"": 2.0, ""Cu"": 5.0, ""Te"": 2.0, ""O"": 14.0, ""H"": 2.0}",1213.332,#FFFFFF,orthorhombic
Tinaksite,K2NaCa2TiSi7O18(OH)O,"{""K"": 2.0, ""Na"": 1.0, ""Ca"": 2.0, ""Ti"": 1.0, ""Si"": 7.0, ""O"": 20.0, ""H"": 1.0}",746.792,#FFFFFF,triclinic
Tincalconite,Na2B4O5(OH)4·3H2O,"{""Na"": 2.0, ""B"": 4.0, ""O"": 12.0, ""H"": 10.0}",291.288,#FFFFFF,hexagonal
Tinnunculite,C5H4N4O3·2H2O,"{""C"": 5.0, ""H"": 8.0, ""N"": 4.0, ""O"": 5.0}",204.142,#FFFFFF,monoclinic
Tinsleyite,KAl2(PO4)2(OH)·2H2O,"{""K"": 1.0, ""Al"": 2.0, ""P"": 2.0, ""O"": 11.0, ""H"": 5.0}",336.039,#FFFFFF,monoclinic
Tinticite,Fe3+3(PO4)2(OH)3·3H2O,"{""Fe"": 3.0, ""P"": 2.0, ""O"": 14.0, ""H"": 9.0}",462.541,#556B2F,triclinic
Tintinaite,Pb10Cu2Sb16S35,"{""Pb"": 10.0, ""Cu"": 2.0, ""Sb"": 16.0, ""S"": 35.0}",5269.352,#708090,orthorhombic
Tischendorfite,Pd8Hg3Se9,"{""Pd"": 8.0, ""Hg"": 3.0, ""Se"": 9.0}",2163.869,#FFFFFF,orthorhombic
Tistarite,Ti2O3,"{""Ti"": 2.0, ""O"": 3.0}",143.731,#FFFFFF,hexagonal
Titanite,CaTi(SiO4)O,"{""Ca"": 1.0, ""Ti"": 1.0, ""Si"": 1.0, ""O"": 5.0}",196.025,#FFFFFF,monoclinic
Titanium,Ti,"{""Ti"": 1.0}",47.867,#FFFFFF,cubic
Tivanite,TiV3+O3(OH),"{""Ti"": 1.0, ""V"": 1.0, ""O"": 4.0, ""H"": 1.0}",163.813,#FFFFFF,monoclinic
Tobelite,(NH4)Al2(Si3Al)O10(OH)2,"{""N"": 1.0, ""H"": 6.0, ""Al"": 3.0, ""Si"": 3.0, ""O"": 12.0}",377.244,#FFFFFF,monoclinic
Tobermorite,Ca4Si6O17(H2O)2·(Ca·3H2O),"{""Ca"": 7.0, ""Si"": 6.0, ""O"": 28.0, ""H"": 22.0}",919.204,#FFFFFF,monoclinic
Tokkoite,K2Ca4Si7O18(OH)F,"{""K"": 2.0, ""Ca"": 4.0, ""Si"": 7.0, ""O"": 19.0, ""H"": 1.0, ""F"": 1.0}",759.09,#FFFFFF,triclinic
Tolbachite,CuCl2,"{""Cu"": 1.0, ""Cl"": 2.0}",134.446,#00BFFF,monoclinic
Toledoite,TiFeSi,"{""Ti"": 1.0, ""Fe"": 1.0, ""Si"": 1.0}",131.797,#8B4513,orthorhombic
Tolovkite,IrSbS,"{""Ir"": 1.0, ""Sb"": 1.0, ""S"": 1.0}",346.04,#A9A9A9,orthorhombic
Tolstykhite,Au3S4Te6,"{""Au"": 3.0, ""S"": 4.0, ""Te"": 6.0}",1484.75,#A9A9A9,triclinic
Tomamaeite,Cu3Pt,"{""Cu"": 3.0, ""Pt"": 1.0}",385.718,#00BFFF,cubic
Tomcampbellite,[KCl][Fe2+14(OH)6(PO4)6(PO3OH)2],"{""K"": 1.0, ""Cl"": 1.0, ""Fe"": 14.0, ""O"": 38.0, ""H"": 8.0, ""P"": 8.0}",1720.196,#556B2F,monoclinic
Tomichite,V3+4Ti4+3As3+O13(OH),"{""V"": 4.0, ""Ti"": 3.0, ""As"": 1.0, ""O"": 14.0, ""H"": 1.0}",647.285,#FFFFFF,monoclinic
Tomsquarryite,NaMgAl3(PO4)2(OH)6·8H2O,"{""Na"": 1.0, ""Mg"": 1.0, ""Al"": 3.0, ""P"": 2.0, ""O"": 22.0, ""H"": 22.0}",564.343,#FFFFFF,
Tondiite,Cu3MgCl2(OH)6,"{""Cu"": 3.0, ""Mg"": 1.0, ""Cl"": 2.0, ""O"": 6.0, ""H"": 6.0}",387.885,#FFFFFF,hexagonal
Tongbaite,Cr3C2,"{""Cr"": 3.0, ""C"": 2.0}",180.01,#228B22,orthorhombic
Tooeleite,Fe3+6(AsO3)4(SO4)(OH)4·4H2O,"{""Fe"": 6.0, ""As"": 4.0, ""O"": 24.0, ""S"": 1.0, ""H"": 12.0}",1062.89,#556B2F,monoclinic
Topaz,Al2SiO4F2,"{""Al"": 2.0, ""Si"": 1.0, ""O"": 4.0, ""F"": 2.0}",184.041,#FFFFFF,orthorhombic
Topsoeite,FeF3(H2O)3,"{""Fe"": 1.0, ""F"": 3.0, ""H"": 6.0, ""O"": 3.0}",166.884,#556B2F,tetragonal
Torbernite,Cu(UO2)2(PO4)2·12H2O,"{""Cu"": 1.0, ""U"": 2.0, ""O"": 24.0, ""P"": 2.0, ""H"": 24.0}",1009.722,#FFFFFF,tetragonal
Tornebohmite-(Ce),Ce2Al(SiO4)2(OH),"{""Ce"": 2.0, ""Al"": 1.0, ""Si"": 2.0, ""O"": 9.0, ""H"": 1.0}",508.391,#FFFFFF,monoclinic
Tornebohmite-(La),La2Al(SiO4)2(OH),"{""La"": 2.0, ""Al"": 1.0, ""Si"": 2.0, ""O"": 9.0, ""H"": 1.0}",505.971,#FFFFFF,monoclinic
Tornroosite,Pd11As2Te2,"{""Pd"": 11.0, ""As"": 2.0, ""Te"": 2.0}",1575.664,#808080,cubic
Torryweiserite,Rh5Ni10S16,"{""Rh"": 5.0, ""Ni"": 10.0, ""S"": 16.0}",1614.44,#A9A9A9,hexagonal
Touretite,LiAl4Be4(B11Be)O28,"{""Li"": 1.0, ""Al"": 4.0, ""Be"": 5.0, ""B"": 11.0, ""O"": 28.0}",726.811,#FFFFFF,cubic
Townendite,Na8ZrSi6O18,"{""Na"": 8.0, ""Zr"": 1.0, ""Si"": 6.0, ""O"": 18.0}",731.636,#FFFFFF,hexagonal
Trabzonite,Ca4[Si3O9(OH)](OH),"{""Ca"": 4.0, ""Si"": 3.0, ""O"": 11.0, ""H"": 2.0}",422.572,#FFFFFF,orthorhombic
Tranquillityite,Fe2+8Ti3Zr2Si3O24,"{""Fe"": 8.0, ""Ti"": 3.0, ""Zr"": 2.0, ""Si"": 3.0, ""O"": 24.0}",1241.04,#556B2F,hexagonal
Transjordanite,Ni2P,"{""Ni"": 2.0, ""P"": 1.0}",148.36,#7FFF00,hexagonal
Trattnerite,Fe3+2(Mg3Si12)O30,"{""Fe"": 2.0, ""Mg"": 3.0, ""Si"": 12.0, ""O"": 30.0}",1001.595,#556B2F,hexagonal
Treasurite,Ag7Pb6Bi15S30,"{""Ag"": 7.0, ""Pb"": 6.0, ""Bi"": 15.0, ""S"": 30.0}",6094.79,#708090,monoclinic
Trebeurdenite,Fe2+2Fe3+4O2(OH)10(CO3)·3H2O,"{""Fe"": 6.0, ""O"": 18.0, ""H"": 16.0, ""C"": 1.0}",651.191,#556B2F,
Trebiskyite,Na3Mg2[TiV9O28]·22H2O,"{""Na"": 3.0, ""Mg"": 2.0, ""Ti"": 1.0, ""V"": 9.0, ""O"": 50.0, ""H"": 44.0}",1468.227,#FFFFFF,monoclinic
Trechmannite,AgAsS2,"{""Ag"": 1.0, ""As"": 1.0, ""S"": 2.0}",246.912,#FFD700,hexagonal
Tredouxite,NiSb2O6,"{""Ni"": 1.0, ""Sb"": 2.0, ""O"": 6.0}",398.207,#7FFF00,tetragonal
Trembathite,Mg3B7O13Cl,"{""Mg"": 3.0, ""B"": 7.0, ""O"": 13.0, ""Cl"": 1.0}",392.022,#FFFFFF,hexagonal
Trevorite,NiFe3+2O4,"{""Ni"": 1.0, ""Fe"": 2.0, ""O"": 4.0}",234.379,#7FFF00,cubic
Triangulite,Al3(UO2)4(PO4)4(OH)5·5H2O,"{""Al"": 3.0, ""U"": 4.0, ""O"": 34.0, ""P"": 4.0, ""H"": 15.0}",1716.048,#FFFFFF,triclinic
Triazolite,NaCu2(N3C2H2)2(NH3)2Cl3·4H2O,"{""Na"": 1.0, ""Cu"": 2.0, ""N"": 8.0, ""C"": 4.0, ""H"": 18.0, ""Cl"": 3.0, ""O"": 4.0}",498.672,#FFFFFF,orthorhombic
Tridymite,SiO2,"{""Si"": 1.0, ""O"": 2.0}",60.083,#FFFFFF,triclinic
Trigodomeykite,Cu3As,"{""Cu"": 3.0, ""As"": 1.0}",265.56,#00BFFF,hexagonal
Trikalsilite,K2Na(AlSiO4)3,"{""K"": 2.0, ""Na"": 1.0, ""Al"": 3.0, ""Si"": 3.0, ""O"": 12.0}",458.375,#FFFFFF,hexagonal
Trimounsite-(Y),Y2Ti2SiO9,"{""Y"": 2.0, ""Ti"": 2.0, ""Si"": 1.0, ""O"": 9.0}",445.622,#FFFFFF,monoclinic
Trinepheline,NaAlSiO4,"{""Na"": 1.0, ""Al"": 1.0, ""Si"": 1.0, ""O"": 4.0}",142.053,#FFFFFF,monoclinic
Triphylite,LiFe2+(PO4),"{""Li"": 1.0, ""Fe"": 1.0, ""P"": 1.0, ""O"": 4.0}",157.755,#556B2F,orthorhombic
Trippkeite,Cu2+As3+2O4,"{""Cu"": 1.0, ""As"": 2.0, ""O"": 4.0}",277.386,#00BFFF,tetragonal
Tripuhyite,Fe3+Sb5+O4,"{""Fe"": 1.0, ""Sb"": 1.0, ""O"": 4.0}",241.601,#8B4513,tetragonal
Trogerite,(H3O)(UO2)(AsO4)·3H2O,"{""H"": 9.0, ""O"": 10.0, ""U"": 1.0, ""As"": 1.0}",482.014,#FFFFFF,
Trogtalite,CoSe2,"{""Co"": 1.0, ""Se"": 2.0}",216.875,#4169E1,cubic
Troilite,FeS,"{""Fe"": 1.0, ""S"": 1.0}",87.905,#DAA520,hexagonal
Trolleite,Al4(PO4)3(OH)3,"{""Al"": 4.0, ""P"": 3.0, ""O"": 15.0, ""H"": 3.0}",443.859,#FFFFFF,monoclinic
Trona,Na3(HCO3)(CO3)·2H2O,"{""Na"": 3.0, ""H"": 5.0, ""C"": 2.0, ""O"": 8.0}",226.024,#FFFFFF,monoclinic
Truscottite,Ca14Si24O58(OH)8·2H2O,"{""Ca"": 14.0, ""Si"": 24.0, ""O"": 68.0, ""H"": 12.0}",2335.16,#FFFFFF,hexagonal
Trustedtite,Ni2+Ni3+2Se4,"{""Ni"": 3.0, ""Se"": 4.0}",491.963,#7FFF00,cubic
Tsangpoite,Ca5(PO4)2(SiO4),"{""Ca"": 5.0, ""P"": 2.0, ""O"": 12.0, ""Si"": 1.0}",482.411,#FFFFFF,hexagonal
Tsaregorodtsevite,N(CH3)4Si4(SiAl)O12,"{""N"": 1.0, ""C"": 4.0, ""H"": 12.0, ""Si"": 5.0, ""Al"": 1.0, ""O"": 12.0}",433.542,#FFFFFF,orthorhombic
Tschaunerite,(Fe2+)(Fe2+Ti4+)O4,"{""Fe"": 2.0, ""Ti"": 1.0, ""O"": 4.0}",223.553,#8B4513,orthorhombic
Tschermigite,(NH4)Al(SO4)2·12H2O,"{""N"": 1.0, ""H"": 28.0, ""Al"": 1.0, ""S"": 2.0, ""O"": 20.0}",453.313,#FFFFFF,cubic
Tschernichite,CaAl2Si6O16·8H2O,"{""Ca"": 1.0, ""Al"": 2.0, ""Si"": 6.0, ""O"": 24.0, ""H"": 16.0}",662.656,#FFFFFF,monoclinic
Tsnigriite,Ag9SbTe3S3,"{""Ag"": 9.0, ""Sb"": 1.0, ""Te"": 3.0, ""S"": 3.0}",1571.57,#A9A9A9,monoclinic
Tsugaruite,Pb28As15S50Cl,"{""Pb"": 28.0, ""As"": 15.0, ""S"": 50.0, ""Cl"": 1.0}",8563.88,#708090,orthorhombic
Tsumebite,Pb2Cu(PO4)(SO4)(OH),"{""Pb"": 2.0, ""Cu"": 1.0, ""P"": 1.0, ""O"": 9.0, ""S"": 1.0, ""H"": 1.0}",685.979,#FFFFFF,monoclinic
Tsumgallite,GaO(OH),"{""Ga"": 1.0, ""O"": 2.0, ""H"": 1.0}",102.729,#FFFFFF,orthorhombic
Tsumoite,BiTe,"{""Bi"": 1.0, ""Te"": 1.0}",336.58,#D2B48C,hexagonal
Tubulite,Ag2Pb22Sb20S53,"{""Ag"": 2.0, ""Pb"": 22.0, ""Sb"": 20.0, ""S"": 53.0}",8908.52,#708090,monoclinic
Tucekite,Ni9Sb2S8,"{""Ni"": 9.0, ""Sb"": 2.0, ""S"": 8.0}",1028.237,#A9A9A9,tetragonal
Tugarinovite,MoO2,"{""Mo"": 1.0, ""O"": 2.0}",127.948,#FFFFFF,monoclinic
Tugtupite,Na4BeAlSi4O12Cl,"{""Na"": 4.0, ""Be"": 1.0, ""Al"": 1.0, ""Si"": 4.0, ""O"": 12.0, ""Cl"": 1.0}",467.7322,#FFFFFF,tetragonal
Tuhualite,NaFe2+Fe3+Si6O15,"{""Na"": 1.0, ""Fe"": 2.0, ""Si"": 6.0, ""O"": 15.0}",543.175,#556B2F,orthorhombic
Tuite,Ca3(PO4)2,"{""Ca"": 3.0, ""P"": 2.0, ""O"": 8.0}",310.174,#FFFFFF,hexagonal
Tulameenite,Pt2CuFe,"{""Pt"": 2.0, ""Cu"": 1.0, ""Fe"": 1.0}",509.551,#00BFFF,tetragonal
Tuliokite,Na6BaTh(CO3)6·6H2O,"{""Na"": 6.0, ""Ba"": 1.0, ""Th"": 1.0, ""C"": 6.0, ""O"": 24.0, ""H"": 12.0}",975.448,#FFFFFF,hexagonal
Tumchaite,Na2ZrSi4O11·2H2O,"{""Na"": 2.0, ""Zr"": 1.0, ""Si"": 4.0, ""O"": 13.0, ""H"": 4.0}",461.563,#FFFFFF,monoclinic
Tundrite-(Ce),Na2Ce2TiO2(SiO4)(CO3)2,"{""Na"": 2.0, ""Ce"": 2.0, ""Ti"": 1.0, ""O"": 12.0, ""Si"": 1.0, ""C"": 2.0}",618.182,#FFFFFF,triclinic
Tundrite-(Nd),Na2Nd2TiO2(SiO4)(CO3)2,"{""Na"": 2.0, ""Nd"": 2.0, ""Ti"": 1.0, ""O"": 12.0, ""Si"": 1.0, ""C"": 2.0}",626.422,#FFFFFF,triclinic
Tunellite,SrB6O9(OH)2·3H2O,"{""Sr"": 1.0, ""B"": 6.0, ""O"": 14.0, ""H"": 8.0}",384.53,#FFFFFF,monoclinic
Tungsten,W,"{""W"": 1.0}",183.84,#FFFFFF,cubic
Tungstenite,WS2,"{""W"": 1.0, ""S"": 2.0}",247.96,#A9A9A9,hexagonal
Tungstibite,Sb2WO6,"{""Sb"": 2.0, ""W"": 1.0, ""O"": 6.0}",523.354,#A9A9A9,orthorhombic
Tungstite,WO3·H2O,"{""W"": 1.0, ""O"": 4.0, ""H"": 2.0}",249.852,#FFFFFF,orthorhombic
Tungusite,Ca14Fe2+9Si24O60(OH)22,"{""Ca"": 14.0, ""Fe"": 9.0, ""Si"": 24.0, ""O"": 82.0, ""H"": 22.0}",3071.831,#556B2F,triclinic
Tunisite,NaCa2Al4(CO3)4(OH)8Cl,"{""Na"": 1.0, ""Ca"": 2.0, ""Al"": 4.0, ""C"": 4.0, ""O"": 20.0, ""H"": 8.0, ""Cl"": 1.0}",622.612,#FFFFFF,tetragonal
Turanite,Cu2+5(VO4)2(OH)4,"{""Cu"": 5.0, ""V"": 2.0, ""O"": 12.0, ""H"": 4.0}",615.634,#FFFFFF,triclinic
Turneaureite,Ca5(AsO4)3Cl,"{""Ca"": 5.0, ""As"": 3.0, ""O"": 12.0, ""Cl"": 1.0}",652.594,#FFFFFF,hexagonal
Turquoise,CuAl6(PO4)4(OH)8·4H2O,"{""Cu"": 1.0, ""Al"": 6.0, ""P"": 4.0, ""O"": 28.0, ""H"": 16.0}",813.434,#FFFFFF,triclinic
Tuzlaite,NaCaB5O8(OH)2·3H2O,"{""Na"": 1.0, ""Ca"": 1.0, ""B"": 5.0, ""O"": 13.0, ""H"": 8.0}",333.169,#FFFFFF,monoclinic
Tvalchrelidzeite,Hg3SbAsS3,"{""Hg"": 3.0, ""Sb"": 1.0, ""As"": 1.0, ""S"": 3.0}",894.632,#FFD700,monoclinic
Tvedalite,Ca4Be3Si6O17(OH)4·3H2O,"{""Ca"": 4.0, ""Be"": 3.0, ""Si"": 6.0, ""O"": 24.0, ""H"": 10.0}",749.9146,#FFFFFF,orthorhombic
Tvrdyite,Fe2+Fe3+2Al3(PO4)4(OH)5(H2O)4·2H2O,"{""Fe"": 3.0, ""Al"": 3.0, ""P"": 4.0, ""O"": 27.0, ""H"": 17.0}",821.486,#556B2F,monoclinic
Twinnite,PbSbAsS4,"{""Pb"": 1.0, ""Sb"": 1.0, ""As"": 1.0, ""S"": 4.0}",532.122,#708090,monoclinic
Tychite,Na6Mg2(CO3)4(SO4),"{""Na"": 6.0, ""Mg"": 2.0, ""C"": 4.0, ""O"": 16.0, ""S"": 1.0}",522.638,#FFFFFF,cubic
Tyretskite,Ca2B5O9(OH)·H2O,"{""Ca"": 2.0, ""B"": 5.0, ""O"": 11.0, ""H"": 3.0}",313.219,#FFFFFF,triclinic