name,formula,elements,density,color,crystal_system,dna
Fluor-uvite,CaMg3(Al5Mg)(Si6O18)(BO3)3(OH)3F,"{""Ca"": 1.0, ""Mg"": 4.0, ""Al"": 5.0, ""Si"": 6.0, ""O"": 30.0, ""B"": 3.0, ""H"": 3.0, ""F"": 1.0}",975.21,#FFFFFF,hexagonal,"{""system"": ""hexagonal"", ""scale"": [1.0, 1.0, 1.6], ""optical"": {""transparent"": 1, ""refraction"": 1.5, ""birefringence"": 0.01}}"
Fluorwavellite,Al3(PO4)2(OH)2F·5H2O,"{""Al"": 3.0, ""P"": 2.0, ""O"": 15.0, ""H"": 12.0, ""F"": 1.0}",413.98,#FFFFFF,orthorhombic,"{""system"": ""orthorhombic"", ""scale"": [0.8, 1.0, 1.2], ""optical"": {""transparent"": 1, ""refraction"": 1.5, ""birefringence"": 0.01}}"
Foggite,CaAl(PO4)(OH)2·H2O,"{""Ca"": 1.0, ""Al"": 1.0, ""P"": 1.0, ""O"": 7.0, ""H"": 4.0}",214.06,#FFFFFF,orthorhombic,"{""system"": ""orthorhombic"", ""scale"": [0.8, 1.0, 1.2], ""optical"": {""transparent"": 1, ""refraction"": 1.5, ""birefringence"": 0.01}}"
Fogoite-(Y),Ca2Y2Na3Ti(Si2O7)2(OF)F2,"{""Ca"": 2.0, ""Y"": 2.0, ""Na"": 3.0, ""Ti"": 1.0, ""Si"": 4.0, ""O"": 15.0, ""F"": 3.0}",784.18,#FFFFFF,triclinic,"{""system"": ""triclinic"", ""scale"": [0.7, 1.0, 1.3], ""optical"": {""transparent"": 1, ""refraction"": 1.5, ""birefringence"": 0.01}}"
Fontanite,Ca(UO2)3(CO3)2O2·6H2O,"{""Ca"": 1.0, ""U"": 3.0, ""O"": 20.0, ""C"": 2.0, ""H"": 12.0}",1110.29,#FFFFFF,monoclinic,"{""system"": ""monoclinic"", ""scale"": [0.7, 1.0, 1.3], ""optical"": {""transparent"": 1, ""refraction"": 1.5, ""birefringence"": 0.01}}"
Formanite-(Y),YTaO4,"{""Y"": 1.0, ""Ta"": 1.0, ""O"": 4.0}",333.86,#FFFFFF,monoclinic,"{""system"": ""monoclinic"", ""scale"": [0.7, 1.0, 1.3], ""optical"": {""transparent"": 1, ""refraction"": 1.5, ""birefringence"": 0.01}}"
Formicaite,Ca(CHOO)2,"{""Ca"": 1.0, ""C"": 2.0, ""H"": 2.0, ""O"": 4.0}",130.12,#FFFFFF,tetragonal,"{""system"": ""tetragonal"", ""scale"": [1.0, 1.0, 1.4], ""optical"": {""transparent"": 1, ""refraction"": 1.5, ""birefringence"": 0.01}}"
Fornacite,CuPb2(CrO4)(AsO4)(OH),"{""Cu"": 1.0, ""Pb"": 2.0, ""Cr"": 1.0, ""O"": 9.0, ""As"": 1.0, ""H"": 1.0}",749.88,#FFFFFF,monoclinic,"{""system"": ""monoclinic"", ""scale"": [0.7, 1.0, 1.3], ""optical"": {""transparent"": 1, ""refraction"": 1.5, ""birefringence"": 0.01}}"
Forsterite,Mg2(SiO4),"{""Mg"": 2.0, ""Si"": 1.0, ""O"": 4.0}",140.71,#FFFFFF,orthorhombic,"{""system"": ""orthorhombic"", ""scale"": [0.8, 1.0, 1.2], ""optical"": {""transparent"": 1, ""refraction"": 1.5, ""birefringence"": 0.01}}"
Foshagite,Ca4(SiO3)3(OH)2,"{""Ca"": 4.0, ""Si"": 3.0, ""O"": 11.0, ""H"": 2.0}",422.61,#FFFFFF,triclinic,"{""system"": ""triclinic"", ""scale"": [0.7, 1.0, 1.3], ""optical"": {""transparent"": 1, ""refraction"": 1.5, ""birefringence"": 0.01}}"
Fougerite,Fe2+4Fe3+2(OH)12(CO3)·3H2O,"{""Fe"": 6.0, ""O"": 18.0, ""H"": 18.0, ""C"": 1.0}",653.25,#556B2F,hexagonal,"{""system"": ""hexagonal"", ""scale"": [1.0, 1.0, 1.6], ""optical"": {""transparent"": 0, ""refraction"": 0.0, ""birefringence"": 0.0}}"
Francevillite,Ba(UO2)2(VO4)2·5H2O,"{""Ba"": 1.0, ""U"": 2.0, ""O"": 17.0, ""V"": 2.0, ""H"": 10.0}",997.35,#FFFFFF,orthorhombic,"{""system"": ""orthorhombic"", ""scale"": [0.8, 1.0, 1.2], ""optical"": {""transparent"": 1, ""refraction"": 1.5, ""birefringence"": 0.01}}"
Francisite,Cu3Bi(Se4+O3)2O2Cl,"{""Cu"": 3.0, ""Bi"": 1.0, ""Se"": 2.0, ""O"": 8.0, ""Cl"": 1.0}",721.0,#FFFFFF,orthorhombic,"{""system"": ""orthorhombic"", ""scale"": [0.8, 1.0, 1.2], ""optical"": {""transparent"": 1, ""refraction"": 1.5, ""birefringence"": 0.01}}"
Francoanellite,K3Al5(PO3OH)6(PO4)2·12H2O,"{""K"": 3.0, ""Al"": 5.0, ""P"": 8.0, ""O"": 44.0, ""H"": 30.0}",1234.2,#FFFFFF,hexagonal,"{""system"": ""hexagonal"", ""scale"": [1.0, 1.0, 1.6], ""optical"": {""transparent"": 1, ""refraction"": 1.5, ""birefringence"": 0.01}}"
Francoisite-(Ce),Ce(UO2)3O(OH)(PO4)2·6H2O,"{""Ce"": 1.0, ""U"": 3.0, ""O"": 22.0, ""H"": 13.0, ""P"": 2.0}",1281.25,#FFFFFF,monoclinic,"{""system"": ""monoclinic"", ""scale"": [0.7, 1.0, 1.3], ""optical"": {""transparent"": 1, ""refraction"": 1.5, ""birefringence"": 0.01}}"
Francoisite-(Nd),Nd(UO2)3O(OH)(PO4)2·6H2O,"{""Nd"": 1.0, ""U"": 3.0, ""O"": 22.0, ""H"": 13.0, ""P"": 2.0}",1285.37,#FFFFFF,monoclinic,"{""system"": ""monoclinic"", ""scale"": [0.7, 1.0, 1.3], ""optical"": {""transparent"": 1, ""refraction"": 1.5, ""birefringence"": 0.01}}"
Franconite,NaNb2O5(OH)·3H2O,"{""Na"": 1.0, ""Nb"": 2.0, ""O"": 9.0, ""H"": 7.0}",359.87,#FFFFFF,monoclinic,"{""system"": ""monoclinic"", ""scale"": [0.7, 1.0, 1.3], ""optical"": {""transparent"": 1, ""refraction"": 1.5, ""birefringence"": 0.01}}"
Frankamenite,K3Na3Ca5Si12O30F3(OH)·H2O,"{""K"": 3.0, ""Na"": 3.0, ""Ca"": 5.0, ""Si"": 12.0, ""O"": 32.0, ""F"": 3.0, ""H"": 3.0}",1295.77,#FFFFFF,triclinic,"{""system"": ""triclinic"", ""scale"": [0.7, 1.0, 1.3], ""optical"": {""transparent"": 1, ""refraction"": 1.5, ""birefringence"": 0.01}}"
Frankdicksonite,BaF2,"{""Ba"": 1.0, ""F"": 2.0}",175.33,#FFFFFF,cubic,"{""system"": ""cubic"", ""scale"": [1.0, 1.0, 1.0], ""optical"": {""transparent"": 1, ""refraction"": 1.5, ""birefringence"": 0.0}}"
Frankhawthorneite,Cu2Te6+O4(OH)2,"{""Cu"": 2.0, ""Te"": 1.0, ""O"": 6.0, ""H"": 2.0}",352.72,#FFFFFF,monoclinic,"{""system"": ""monoclinic"", ""scale"": [0.7, 1.0, 1.3], ""optical"": {""transparent"": 1, ""refraction"": 1.5, ""birefringence"": 0.01}}"
Franksousaite,PbCu(Se6+O4)(OH)2,"{""Pb"": 1.0, ""Cu"": 1.0, ""Se"": 1.0, ""O"": 6.0, ""H"": 2.0}",447.73,#FFFFFF,monoclinic,"{""system"": ""monoclinic"", ""scale"": [0.7, 1.0, 1.3], ""optical"": {""transparent"": 1, ""refraction"": 1.5, ""birefringence"": 0.01}}"
Fransoletite,Ca3Be2(PO4)2(PO3OH)2·4H2O,"{""Ca"": 3.0, ""Be"": 2.0, ""P"": 4.0, ""O"": 20.0, ""H"": 10.0}",592.22,#FFFFFF,monoclinic,"{""system"": ""monoclinic"", ""scale"": [0.7, 1.0, 1.3], ""optical"": {""transparent"": 1, ""refraction"": 1.5, ""birefringence"": 0.01}}"
Freboldite,CoSe,"{""Co"": 1.0, ""Se"": 1.0}",137.89,#4169E1,hexagonal,"{""system"": ""hexagonal"", ""scale"": [1.0, 1.0, 1.6], ""optical"": {""transparent"": 0, ""refraction"": 0.0, ""birefringence"": 0.0}}"
Freedite,Cu1+Pb8(As3+O3)2O3Cl5,"{""Cu"": 1.0, ""Pb"": 8.0, ""As"": 2.0, ""O"": 9.0, ""Cl"": 5.0}",2192.24,#FFFFFF,monoclinic,"{""system"": ""monoclinic"", ""scale"": [0.7, 1.0, 1.3], ""optical"": {""transparent"": 1, ""refraction"": 1.5, ""birefringence"": 0.01}}"
Freieslebenite,AgPbSbS3,"{""Ag"": 1.0, ""Pb"": 1.0, ""Sb"": 1.0, ""S"": 3.0}",533.01,#708090,monoclinic,"{""system"": ""monoclinic"", ""scale"": [0.7, 1.0, 1.3], ""optical"": {""transparent"": 0, ""refraction"": 0.0, ""birefringence"": 0.0}}"
Freitalite,C14H10,"{""C"": 14.0, ""H"": 10.0}",178.22,#FFFFFF,monoclinic,"{""system"": ""monoclinic"", ""scale"": [0.7, 1.0, 1.3], ""optical"": {""transparent"": 1, ""refraction"": 1.5, ""birefringence"": 0.01}}"
Fresnoite,Ba2TiO(Si2O7),"{""Ba"": 2.0, ""Ti"": 1.0, ""O"": 8.0, ""Si"": 2.0}",506.71,#FFFFFF,tetragonal,"{""system"": ""tetragonal"", ""scale"": [1.0, 1.0, 1.4], ""optical"": {""transparent"": 1, ""refraction"": 1.5, ""birefringence"": 0.01}}"
Freudenbergite,Na(Ti4+3Fe3+)O8,"{""Na"": 1.0, ""Ti"": 3.0, ""Fe"": 1.0, ""O"": 8.0}",350.45,#556B2F,monoclinic,"{""system"": ""monoclinic"", ""scale"": [0.7, 1.0, 1.3], ""optical"": {""transparent"": 0, ""refraction"": 0.0, ""birefringence"": 0.0}}"
Friedrichite,Cu5Pb5Bi7S18,"{""Cu"": 5.0, ""Pb"": 5.0, ""Bi"": 7.0, ""S"": 18.0}",3393.69,#708090,orthorhombic,"{""system"": ""orthorhombic"", ""scale"": [0.8, 1.0, 1.2], ""optical"": {""transparent"": 0, ""refraction"": 0.0, ""birefringence"": 0.0}}"
Friisite,Pb8Al3Si8O27Cl3,"{""Pb"": 8.0, ""Al"": 3.0, ""Si"": 8.0, ""O"": 27.0, ""Cl"": 3.0}",2501.61,#FFFFFF,hexagonal,"{""system"": ""hexagonal"", ""scale"": [1.0, 1.0, 1.6], ""optical"": {""transparent"": 1, ""refraction"": 1.5, ""birefringence"": 0.01}}"
Frohbergite,FeTe2,"{""Fe"": 1.0, ""Te"": 2.0}",311.05,#8B4513,orthorhombic,"{""system"": ""orthorhombic"", ""scale"": [0.8, 1.0, 1.2], ""optical"": {""transparent"": 0, ""refraction"": 0.0, ""birefringence"": 0.0}}"
Frolovite,Ca[B(OH)4]2,"{""Ca"": 1.0, ""B"": 2.0, ""O"": 8.0, ""H"": 8.0}",197.76,#FFFFFF,triclinic,"{""system"": ""triclinic"", ""scale"": [0.7, 1.0, 1.3], ""optical"": {""transparent"": 1, ""refraction"": 1.5, ""birefringence"": 0.01}}"
Froodite,PdBi2,"{""Pd"": 1.0, ""Bi"": 2.0}",524.38,#D2B48C,monoclinic,"{""system"": ""monoclinic"", ""scale"": [0.7, 1.0, 1.3], ""optical"": {""transparent"": 0, ""refraction"": 0.0, ""birefringence"": 0.0}}"
Fuchunite,Ba(C2H3O3)2(C2H4O3)2,"{""Ba"": 1.0, ""C"": 8.0, ""H"": 14.0, ""O"": 12.0}",439.52,#FFFFFF,monoclinic,"{""system"": ""monoclinic"", ""scale"": [0.7, 1.0, 1.3], ""optical"": {""transparent"": 1, ""refraction"": 1.5, ""birefringence"": 0.01}}"
Fuenzalidaite,K3Na5Mg5(IO3)6(SO4)6·6H2O,"{""K"": 3.0, ""Na"": 5.0, ""Mg"": 5.0, ""I"": 6.0, ""O"": 48.0, ""S"": 6.0, ""H"": 12.0}",2087.66,#FFFFFF,hexagonal,"{""system"": ""hexagonal"", ""scale"": [1.0, 1.0, 1.6], ""optical"": {""transparent"": 1, ""refraction"": 1.5, ""birefringence"": 0.01}}"
Fuettererite,Pb3Cu2+6Te6+O6(OH)7Cl5,"{""Pb"": 3.0, ""Cu"": 6.0, ""Te"": 1.0, ""O"": 13.0, ""H"": 7.0, ""Cl"": 5.0}",1522.81,#FFFFFF,hexagonal,"{""system"": ""hexagonal"", ""scale"": [1.0, 1.0, 1.6], ""optical"": {""transparent"": 1, ""refraction"": 1.5, ""birefringence"": 0.01}}"
Fukalite,Ca4Si2O6(CO3)(OH)2,"{""Ca"": 4.0, ""Si"": 2.0, ""O"": 11.0, ""C"": 1.0, ""H"": 2.0}",406.53,#FFFFFF,monoclinic,"{""system"": ""monoclinic"", ""scale"": [0.7, 1.0, 1.3], ""optical"": {""transparent"": 1, ""refraction"": 1.5, ""birefringence"": 0.01}}"
Fukuchilite,Cu3FeS8,"{""Cu"": 3.0, ""Fe"": 1.0, ""S"": 8.0}",502.98,#DAA520,cubic,"{""system"": ""cubic"", ""scale"": [1.0, 1.0, 1.0], ""optical"": {""transparent"": 0, ""refraction"": 0.0, ""birefringence"": 0.0}}"
Fulbrightite,Ca(VO)2(AsO4)2·4H2O,"{""Ca"": 1.0, ""V"": 2.0, ""O"": 14.0, ""As"": 2.0, ""H"": 8.0}",523.86,#FFFFFF,triclinic,"{""system"": ""triclinic"", ""scale"": [0.7, 1.0, 1.3], ""optical"": {""transparent"": 1, ""refraction"": 1.5, ""birefringence"": 0.01}}"
Fuloppite,Pb3Sb8S15,"{""Pb"": 3.0, ""Sb"": 8.0, ""S"": 15.0}",2076.58,#708090,monoclinic,"{""system"": ""monoclinic"", ""scale"": [0.7, 1.0, 1.3], ""optical"": {""transparent"": 0, ""refraction"": 0.0, ""birefringence"": 0.0}}"
Fuyuanite,Mg7Nb6O18(OH)8,"{""Mg"": 7.0, ""Nb"": 6.0, ""O"": 26.0, ""H"": 8.0}",1151.69,#FFFFFF,hexagonal,"{""system"": ""hexagonal"", ""scale"": [1.0, 1.0, 1.6], ""optical"": {""transparent"": 1, ""refraction"": 1.5, ""birefringence"": 0.01}}"
Gabrielite,Tl2AgCu2As3S7,"{""Tl"": 2.0, ""Ag"": 1.0, ""Cu"": 2.0, ""As"": 3.0, ""S"": 7.0}",1092.91,#FFD700,triclinic,"{""system"": ""triclinic"", ""scale"": [0.7, 1.0, 1.3], ""optical"": {""transparent"": 0, ""refraction"": 0.0, ""birefringence"": 0.0}}"
Gabrielsonite,PbFe3+(AsO3)O,"{""Pb"": 1.0, ""Fe"": 1.0, ""As"": 1.0, ""O"": 4.0}",401.97,#556B2F,orthorhombic,"{""system"": ""orthorhombic"", ""scale"": [0.8, 1.0, 1.2], ""optical"": {""transparent"": 0, ""refraction"": 0.0, ""birefringence"": 0.0}}"
Gadolinite-(Ce),Ce2Fe2+Be2O2(SiO4)2,"{""Ce"": 2.0, ""Fe"": 1.0, ""Be"": 2.0, ""O"": 10.0, ""Si"": 2.0}",570.29,#556B2F,monoclinic,"{""system"": ""monoclinic"", ""scale"": [0.7, 1.0, 1.3], ""optical"": {""transparent"": 0, ""refraction"": 0.0, ""birefringence"": 0.0}}"
Gadolinite-(Nd),Nd2Fe2+Be2O2(SiO4)2,"{""Nd"": 2.0, ""Fe"": 1.0, ""Be"": 2.0, ""O"": 10.0, ""Si"": 2.0}",578.53,#556B2F,monoclinic,"{""system"": ""monoclinic"", ""scale"": [0.7, 1.0, 1.3], ""optical"": {""transparent"": 0, ""refraction"": 0.0, ""birefringence"": 0.0}}"
Gadolinite-(Y),Y2Fe2+Be2O2(SiO4)2,"{""Y"": 2.0, ""Fe"": 1.0, ""Be"": 2.0, ""O"": 10.0, ""Si"": 2.0}",467.87,#556B2F,monoclinic,"{""system"": ""monoclinic"", ""scale"": [0.7, 1.0, 1.3], ""optical"": {""transparent"": 0, ""refraction"": 0.0, ""birefringence"": 0.0}}"
Gagarinite-(Ce),NaCaCeF6,"{""Na"": 1.0, ""Ca"": 1.0, ""Ce"": 1.0, ""F"": 6.0}",317.19,#FFFFFF,hexagonal,"{""system"": ""hexagonal"", ""scale"": [1.0, 1.0, 1.6], ""optical"": {""transparent"": 1, ""refraction"": 1.5, ""birefringence"": 0.01}}"
Gagarinite-(Y),NaCaYF6,"{""Na"": 1.0, ""Ca"": 1.0, ""Y"": 1.0, ""F"": 6.0}",265.98,#FFFFFF,hexagonal,"{""system"": ""hexagonal"", ""scale"": [1.0, 1.0, 1.6], ""optical"": {""transparent"": 1, ""refraction"": 1.5, ""birefringence"": 0.01}}"
Gaidonnayite,Na2ZrSi3O9·2H2O,"{""Na"": 2.0, ""Zr"": 1.0, ""Si"": 3.0, ""O"": 11.0, ""H"": 4.0}",401.5,#FFFFFF,orthorhombic,"{""system"": ""orthorhombic"", ""scale"": [0.8, 1.0, 1.2], ""optical"": {""transparent"": 1, ""refraction"": 1.5, ""birefringence"": 0.01}}"
Galeaclolusite,Al6(AsO4)3(OH)9(H2O)4·8H2O,"{""Al"": 6.0, ""As"": 3.0, ""O"": 33.0, ""H"": 33.0}",947.9,#FFFFFF,orthorhombic,"{""system"": ""orthorhombic"", ""scale"": [0.8, 1.0, 1.2], ""optical"": {""transparent"": 1, ""refraction"": 1.5, ""birefringence"": 0.01}}"
Galeite,Na15(SO4)5ClF4,"{""Na"": 15.0, ""S"": 5.0, ""O"": 20.0, ""Cl"": 1.0, ""F"": 4.0}",936.6,#FFFFFF,hexagonal,"{""system"": ""hexagonal"", ""scale"": [1.0, 1.0, 1.6], ""optical"": {""transparent"": 1, ""refraction"": 1.5, ""birefringence"": 0.01}}"
Galena,PbS,"{""Pb"": 1.0, ""S"": 1.0}",239.26,#708090,cubic,"{""system"": ""cubic"", ""scale"": [1.0, 1.0, 1.0], ""optical"": {""transparent"": 0, ""refraction"": 0.0, ""birefringence"": 0.0}}"
Galenobismutite,PbBi2S4,"{""Pb"": 1.0, ""Bi"": 2.0, ""S"": 4.0}",753.4,#708090,orthorhombic,"{""system"": ""orthorhombic"", ""scale"": [0.8, 1.0, 1.2], ""optical"": {""transparent"": 0, ""refraction"": 0.0, ""birefringence"": 0.0}}"
Galgenbergite-(Ce),CaCe2(CO3)4·H2O,"{""Ca"": 1.0, ""Ce"": 2.0, ""C"": 4.0, ""O"": 13.0, ""H"": 2.0}",578.38,#FFFFFF,triclinic,"{""system"": ""triclinic"", ""scale"": [0.7, 1.0, 1.3], ""optical"": {""transparent"": 1, ""refraction"": 1.5, ""birefringence"": 0.01}}"
Galileiite,NaFe2+4(PO4)3,"{""Na"": 1.0, ""Fe"": 4.0, ""P"": 3.0, ""O"": 12.0}",531.3,#556B2F,hexagonal,"{""system"": ""hexagonal"", ""scale"": [1.0, 1.0, 1.6], ""optical"": {""transparent"": 0, ""refraction"": 0.0, ""birefringence"": 0.0}}"
Galkhaite,(Hg5Cu)CsAs4S12,"{""Hg"": 5.0, ""Cu"": 1.0, ""Cs"": 1.0, ""As"": 4.0, ""S"": 12.0}",1883.81,#FFD700,cubic,"{""system"": ""cubic"", ""scale"": [1.0, 1.0, 1.0], ""optical"": {""transparent"": 0, ""refraction"": 0.0, ""birefringence"": 0.0}}"
Galliskiite,Ca4Al2(PO4)2F8·5H2O,"{""Ca"": 4.0, ""Al"": 2.0, ""P"": 2.0, ""O"": 13.0, ""F"": 8.0, ""H"": 10.0}",646.3,#FFFFFF,triclinic,"{""system"": ""triclinic"", ""scale"": [0.7, 1.0, 1.3], ""optical"": {""transparent"": 1, ""refraction"": 1.5, ""birefringence"": 0.01}}"
Gallite,CuGaS2,"{""Cu"": 1.0, ""Ga"": 1.0, ""S"": 2.0}",197.39,#A9A9A9,tetragonal,"{""system"": ""tetragonal"", ""scale"": [1.0, 1.0, 1.4], ""optical"": {""transparent"": 0, ""refraction"": 0.0, ""birefringence"": 0.0}}"
Gallobeudantite,PbGa3(AsO4)(SO4)(OH)6,"{""Pb"": 1.0, ""Ga"": 3.0, ""As"": 1.0, ""O"": 14.0, ""S"": 1.0, ""H"": 6.0}",753.39,#FFFFFF,hexagonal,"{""system"": ""hexagonal"", ""scale"": [1.0, 1.0, 1.6], ""optical"": {""transparent"": 1, ""refraction"": 1.5, ""birefringence"": 0.01}}"
Galuskinite,Ca7(SiO4)3(CO3),"{""Ca"": 7.0, ""Si"": 3.0, ""O"": 15.0, ""C"": 1.0}",616.84,#FFFFFF,monoclinic,"{""system"": ""monoclinic"", ""scale"": [0.7, 1.0, 1.3], ""optical"": {""transparent"": 1, ""refraction"": 1.5, ""birefringence"": 0.01}}"
Gamagarite,Ba2Fe3+(VO4)2(OH),"{""Ba"": 2.0, ""Fe"": 1.0, ""V"": 2.0, ""O"": 9.0, ""H"": 1.0}",577.4,#556B2F,monoclinic,"{""system"": ""monoclinic"", ""scale"": [0.7, 1.0, 1.3], ""optical"": {""transparent"": 0, ""refraction"": 0.0, ""birefringence"": 0.0}}"
Gananite,BiF3,"{""Bi"": 1.0, ""F"": 3.0}",265.98,#D2B48C,cubic,"{""system"": ""cubic"", ""scale"": [1.0, 1.0, 1.0], ""optical"": {""transparent"": 0, ""refraction"": 0.0, ""birefringence"": 0.0}}"
Ganomalite,Pb9Ca6(Si2O7)4(SiO4)O,"{""Pb"": 9.0, ""Ca"": 6.0, ""Si"": 9.0, ""O"": 33.0}",2886.09,#FFFFFF,hexagonal,"{""system"": ""hexagonal"", ""scale"": [1.0, 1.0, 1.6], ""optical"": {""transparent"": 1, ""refraction"": 1.5, ""birefringence"": 0.01}}"
Gaotaiite,Ir3Te8,"{""Ir"": 3.0, ""Te"": 8.0}",1597.46,#FFFFFF,cubic,"{""system"": ""cubic"", ""scale"": [1.0, 1.0, 1.0], ""optical"": {""transparent"": 1, ""refraction"": 1.5, ""birefringence"": 0.0}}"
Garavellite,FeSbBiS4,"{""Fe"": 1.0, ""Sb"": 1.0, ""Bi"": 1.0, ""S"": 4.0}",514.83,#DAA520,orthorhombic,"{""system"": ""orthorhombic"", ""scale"": [0.8, 1.0, 1.2], ""optical"": {""transparent"": 0, ""refraction"": 0.0, ""birefringence"": 0.0}}"
Garmite,CsLiMg2(Si4O10)F2,"{""Cs"": 1.0, ""Li"": 1.0, ""Mg"": 2.0, ""Si"": 4.0, ""O"": 10.0, ""F"": 2.0}",498.83,#FFFFFF,monoclinic,"{""system"": ""monoclinic"", ""scale"": [0.7, 1.0, 1.3], ""optical"": {""transparent"": 1, ""refraction"": 1.5, ""birefringence"": 0.01}}"
Garrelsite,NaBa3B7Si2O16(OH)4,"{""Na"": 1.0, ""Ba"": 3.0, ""B"": 7.0, ""Si"": 2.0, ""O"": 20.0, ""H"": 4.0}",890.86,#FFFFFF,monoclinic,"{""system"": ""monoclinic"", ""scale"": [0.7, 1.0, 1.3], ""optical"": {""transparent"": 1, ""refraction"": 1.5, ""birefringence"": 0.01}}"
Garronite-Ca,Ca3(Al6Si10O32)·14H2O,"{""Ca"": 3.0, ""Al"": 6.0, ""Si"": 10.0, ""O"": 46.0, ""H"": 28.0}",1327.24,#FFFFFF,tetragonal,"{""system"": ""tetragonal"", ""scale"": [1.0, 1.0, 1.4], ""optical"": {""transparent"": 1, ""refraction"": 1.5, ""birefringence"": 0.01}}"
Gartrellite,PbCuFe3+(AsO4)2(OH)·H2O,"{""Pb"": 1.0, ""Cu"": 1.0, ""Fe"": 1.0, ""As"": 2.0, ""O"": 10.0, ""H"": 3.0}",639.46,#556B2F,triclinic,"{""system"": ""triclinic"", ""scale"": [0.7, 1.0, 1.3], ""optical"": {""transparent"": 0, ""refraction"": 0.0, ""birefringence"": 0.0}}"
Garyansellite,Mg2Fe3+(PO4)2(OH)·2H2O,"{""Mg"": 2.0, ""Fe"": 1.0, ""P"": 2.0, ""O"": 11.0, ""H"": 5.0}",347.45,#556B2F,orthorhombic,"{""system"": ""orthorhombic"", ""scale"": [0.8, 1.0, 1.2], ""optical"": {""transparent"": 0, ""refraction"": 0.0, ""birefringence"": 0.0}}"
Gasparite-(Ce),Ce(AsO4),"{""Ce"": 1.0, ""As"": 1.0, ""O"": 4.0}",279.04,#808080,monoclinic,"{""system"": ""monoclinic"", ""scale"": [0.7, 1.0, 1.3], ""optical"": {""transparent"": 0, ""refraction"": 0.0, ""birefringence"": 0.0}}"
Gasparite-(La),La(AsO4),"{""La"": 1.0, ""As"": 1.0, ""O"": 4.0}",277.83,#808080,monoclinic,"{""system"": ""monoclinic"", ""scale"": [0.7, 1.0, 1.3], ""optical"": {""transparent"": 0, ""refraction"": 0.0, ""birefringence"": 0.0}}"
Gaspeite,Ni(CO3),"{""Ni"": 1.0, ""C"": 1.0, ""O"": 3.0}",118.7,#7FFF00,hexagonal,"{""system"": ""hexagonal"", ""scale"": [1.0, 1.0, 1.6], ""optical"": {""transparent"": 0, ""refraction"": 0.0, ""birefringence"": 0.0}}"
Gatewayite,Ca6(As3+V4+3V5+9As5+6O51)·31H2O,"{""Ca"": 6.0, ""As"": 7.0, ""V"": 12.0, ""O"": 82.0, ""H"": 62.0}",2750.7,#FFFFFF,monoclinic,"{""system"": ""monoclinic"", ""scale"": [0.7, 1.0, 1.3], ""optical"": {""transparent"": 1, ""refraction"": 1.5, ""birefringence"": 0.01}}"
Gatumbaite,CaAl2(PO4)2(OH)2·H2O,"{""Ca"": 1.0, ""Al"": 2.0, ""P"": 2.0, ""O"": 11.0, ""H"": 4.0}",336.01,#FFFFFF,monoclinic,"{""system"": ""monoclinic"", ""scale"": [0.7, 1.0, 1.3], ""optical"": {""transparent"": 1, ""refraction"": 1.5, ""birefringence"": 0.01}}"
Gauthierite,KPb[(UO2)7O5(OH)7]·8H2O,"{""K"": 1.0, ""Pb"": 1.0, ""U"": 7.0, ""O"": 34.0, ""H"": 23.0}",2479.69,#FFFFFF,monoclinic,"{""system"": ""monoclinic"", ""scale"": [0.7, 1.0, 1.3], ""optical"": {""transparent"": 1, ""refraction"": 1.5, ""birefringence"": 0.01}}"
Gaylussite,Na2Ca(CO3)2·5H2O,"{""Na"": 2.0, ""Ca"": 1.0, ""C"": 2.0, ""O"": 11.0, ""H"": 10.0}",296.16,#FFFFFF,monoclinic,"{""system"": ""monoclinic"", ""scale"": [0.7, 1.0, 1.3], ""optical"": {""transparent"": 1, ""refraction"": 1.5, ""birefringence"": 0.01}}"
Gazeevite,BaCa6(SiO4)2(SO4)2O,"{""Ba"": 1.0, ""Ca"": 6.0, ""Si"": 2.0, ""O"": 17.0, ""S"": 2.0}",770.11,#FFFFFF,hexagonal,"{""system"": ""hexagonal"", ""scale"": [1.0, 1.0, 1.6], ""optical"": {""transparent"": 1, ""refraction"": 1.5, ""birefringence"": 0.01}}"