name,formula,elements,density,color,crystal
Antigorite,Mg3Si2O5(OH)4,"{""Mg"": 3.0, ""Si"": 2.0, ""O"": 9.0, ""H"": 4.0}",277.108,#FFFFFF,monoclinic
Antimonselite,Sb2Se3,"{""Sb"": 2.0, ""Se"": 3.0}",480.433,#A9A9A9,orthorhombic
Antimony,Sb,"{""Sb"": 1.0}",121.76,#A9A9A9,tetragonal
Antipinite,KNa3Cu2(C2O4)4,"{""K"": 1.0, ""Na"": 3.0, ""Cu"": 2.0, ""C"": 8.0, ""O"": 16.0}",587.232,#FFFFFF,triclinic
Antipovite,Cu5O2(PO4)2,"{""Cu"": 5.0, ""O"": 10.0, ""P"": 2.0}",539.668,#00BFFF,triclinic
Antlerite,Cu2+3(SO4)(OH)4,"{""Cu"": 3.0, ""S"": 1.0, ""O"": 8.0, ""H"": 4.0}",354.722,#FFFFFF,orthorhombic
Anyuiite,AuPb2,"{""Au"": 1.0, ""Pb"": 2.0}",611.37,#FFD700,tetragonal
Anzaite-(Ce),Ce4Fe2+Ti6O18(OH)2,"{""Ce"": 4.0, ""Fe"": 1.0, ""Ti"": 6.0, ""O"": 20.0, ""H"": 2.0}",1225.523,#556B2F,monoclinic
Apachite,Cu2+9Si10O29·11H2O,"{""Cu"": 9.0, ""Si"": 10.0, ""O"": 40.0, ""H"": 22.0}",1514.9,#FFFFFF,monoclinic
Apexite,NaMg(PO4)·9H2O,"{""Na"": 1.0, ""Mg"": 1.0, ""P"": 1.0, ""O"": 13.0, ""H"": 18.0}",304.4,#FFFFFF,triclinic
Aphthitalite,K3Na(SO4)2,"{""K"": 3.0, ""Na"": 1.0, ""S"": 2.0, ""O"": 8.0}",332.396,#FFFFFF,hexagonal
Aplowite,Co(SO4)·4H2O,"{""Co"": 1.0, ""S"": 1.0, ""O"": 8.0, ""H"": 8.0}",227.049,#FFFFFF,monoclinic
Apuanite,(Fe2+Fe3+2)(Fe3+2Sb3+4)O12S,"{""Fe"": 5.0, ""Sb"": 4.0, ""O"": 12.0, ""S"": 1.0}",990.313,#556B2F,tetragonal
Aradite,BaCa6[(SiO4)(VO4)](VO4)2F,"{""Ba"": 1.0, ""Ca"": 6.0, ""Si"": 1.0, ""O"": 16.0, ""V"": 3.0, ""F"": 1.0}",833.691,#FFFFFF,hexagonal
Aragonite,Ca(CO3),"{""Ca"": 1.0, ""C"": 1.0, ""O"": 3.0}",100.086,#FFFFFF,orthorhombic
Arangasite,Al2(SO4)(PO4)F·9H2O,"{""Al"": 2.0, ""S"": 1.0, ""O"": 17.0, ""P"": 1.0, ""F"": 1.0, ""H"": 18.0}",426.123,#FFFFFF,monoclinic
Aravaipaite,Pb3AlF9·H2O,"{""Pb"": 3.0, ""Al"": 1.0, ""F"": 9.0, ""H"": 2.0, ""O"": 1.0}",837.579,#FFFFFF,monoclinic
Aravaite,Ba2Ca18(SiO4)6(PO4)3(CO3)F3O,"{""Ba"": 2.0, ""Ca"": 18.0, ""Si"": 6.0, ""O"": 40.0, ""P"": 3.0, ""C"": 1.0, ""F"": 3.0}",1966.461,#FFFFFF,hexagonal
Arcanite,K2(SO4),"{""K"": 2.0, ""S"": 1.0, ""O"": 4.0}",174.252,#FFFF00,orthorhombic
Archerite,H2K(PO4),"{""H"": 2.0, ""K"": 1.0, ""P"": 1.0, ""O"": 4.0}",136.084,#FFFFFF,tetragonal
Arctite,(Na5Ca)Ca6Ba(PO4)6F3,"{""Na"": 5.0, ""Ca"": 7.0, ""Ba"": 1.0, ""P"": 6.0, ""O"": 24.0, ""F"": 3.0}",1159.64,#FFFFFF,hexagonal
Arcubisite,Ag6CuBiS4,"{""Ag"": 6.0, ""Cu"": 1.0, ""Bi"": 1.0, ""S"": 4.0}",1047.986,#A9A9A9,
Ardaite,Pb17Sb15S35Cl9,"{""Pb"": 17.0, ""Sb"": 15.0, ""S"": 35.0, ""Cl"": 9.0}",6789.95,#708090,monoclinic
Ardealite,Ca2(PO3OH)(SO4)·4H2O,"{""Ca"": 2.0, ""P"": 1.0, ""O"": 12.0, ""H"": 9.0, ""S"": 1.0}",344.25,#FFFFFF,monoclinic
Arfvedsonite,NaNa2(Fe2+4Fe3+)Si8O22(OH)2,"{""Na"": 3.0, ""Fe"": 5.0, ""Si"": 8.0, ""O"": 24.0, ""H"": 2.0}",958.867,#556B2F,monoclinic
Argentodufrenoysite,Ag3Pb26As35S80,"{""Ag"": 3.0, ""Pb"": 26.0, ""As"": 35.0, ""S"": 80.0}",10897.88,#708090,triclinic
Argentojarosite,AgFe3+3(SO4)2(OH)6,"{""Ag"": 1.0, ""Fe"": 3.0, ""S"": 2.0, ""O"": 14.0, ""H"": 6.0}",569.559,#556B2F,hexagonal
Argentopearceite,[Ag9AgS4][Ag6As2S7],"{""Ag"": 16.0, ""S"": 11.0, ""As"": 2.0}",2228.424,#FFD700,hexagonal
Argentopolybasite,[Ag9AgS4][Ag6Sb2S7],"{""Ag"": 16.0, ""S"": 11.0, ""Sb"": 2.0}",2322.1,#A9A9A9,monoclinic
Argentopyrite,AgFe2S3,"{""Ag"": 1.0, ""Fe"": 2.0, ""S"": 3.0}",315.74,#DAA520,monoclinic
Argentotennantite-(Fe),Ag6(Cu4Fe2)As4S13,"{""Ag"": 6.0, ""Cu"": 4.0, ""Fe"": 2.0, ""As"": 4.0, ""S"": 13.0}",1729.562,#DAA520,cubic
Argentotetrahedrite-(Cd),Ag6(Cu4Cd2)Sb4S13,"{""Ag"": 6.0, ""Cu"": 4.0, ""Cd"": 2.0, ""Sb"": 4.0, ""S"": 13.0}",2030.044,#A9A9A9,cubic
Argentotetrahedrite-(Fe),Ag6(Cu4Fe2)Sb4S13,"{""Ag"": 6.0, ""Cu"": 4.0, ""Fe"": 2.0, ""Sb"": 4.0, ""S"": 13.0}",1916.914,#DAA520,cubic
Argentotetrahedrite-(Hg),Ag6(Cu4Hg2)Sb4S13,"{""Ag"": 6.0, ""Cu"": 4.0, ""Hg"": 2.0, ""Sb"": 4.0, ""S"": 13.0}",2206.404,#A9A9A9,cubic
Argesite,(NH4)7Bi3Cl16,"{""N"": 7.0, ""H"": 28.0, ""Bi"": 3.0, ""Cl"": 16.0}",1320.413,#FFFFFF,hexagonal
Argutite,GeO2,"{""Ge"": 1.0, ""O"": 2.0}",104.628,#FFFFFF,tetragonal
Argyrodite,Ag8GeS6,"{""Ag"": 8.0, ""Ge"": 1.0, ""S"": 6.0}",1127.95,#A9A9A9,orthorhombic
Arhbarite,Cu2Mg(AsO4)(OH)3,"{""Cu"": 2.0, ""Mg"": 1.0, ""As"": 1.0, ""O"": 7.0, ""H"": 3.0}",341.336,#FFFFFF,triclinic
Ariegilatite,BaCa12(SiO4)4(PO4)2F2O,"{""Ba"": 1.0, ""Ca"": 12.0, ""Si"": 4.0, ""O"": 25.0, ""P"": 2.0, ""F"": 2.0}",1230.525,#FFFFFF,hexagonal
Aristarainite,Na2Mg[B6O8(OH)4]2·4H2O,"{""Na"": 2.0, ""Mg"": 1.0, ""B"": 12.0, ""O"": 28.0, ""H"": 16.0}",664.105,#FFFFFF,monoclinic
Armellinoite-(Ce),Ca4Ce4+(AsO4)4·H2O,"{""Ca"": 4.0, ""Ce"": 1.0, ""As"": 4.0, ""O"": 17.0, ""H"": 2.0}",874.119,#FFFFFF,tetragonal
Armenite,BaCa2(Al6Si9)O30·2H2O,"{""Ba"": 1.0, ""Ca"": 2.0, ""Al"": 6.0, ""Si"": 9.0, ""O"": 32.0, ""H"": 4.0}",1148.143,#FFFFFF,orthorhombic
Armstrongite,CaZr(Si6O15)·2H2O,"{""Ca"": 1.0, ""Zr"": 1.0, ""Si"": 6.0, ""O"": 17.0, ""H"": 4.0}",575.827,#FFFFFF,monoclinic
Arrheniusite-(Ce),CaMg[(Ce7Y3)Ca5](SiO4)3(Si3B3O18)(AsO4)(BO3)F11,"{""Ca"": 6.0, ""Mg"": 1.0, ""Ce"": 7.0, ""Y"": 3.0, ""Si"": 6.0, ""O"": 37.0, ""B"": 4.0, ""As"": 1.0, ""F"": 11.0}",2599.944,#FFFFFF,hexagonal
Arrojadite-(BaNa),BaNa3(NaCa)Fe2+13Al(PO4)11(PO3OH)(OH)2,"{""Ba"": 1.0, ""Na"": 4.0, ""Ca"": 1.0, ""Fe"": 13.0, ""Al"": 1.0, ""P"": 12.0, ""O"": 50.0, ""H"": 3.0}",2196.997,#556B2F,monoclinic
Arrojadite-(KFe),(KNa)Fe2+(CaNa2)Fe2+13Al(PO4)11(PO3OH)(OH)2,"{""K"": 1.0, ""Na"": 3.0, ""Fe"": 14.0, ""Ca"": 1.0, ""Al"": 1.0, ""P"": 12.0, ""O"": 50.0, ""H"": 3.0}",2131.62,#556B2F,monoclinic
Arrojadite-(KNa),KNa3(CaNa2)Fe2+13Al(PO4)11(PO3OH)(OH)2,"{""K"": 1.0, ""Na"": 5.0, ""Ca"": 1.0, ""Fe"": 13.0, ""Al"": 1.0, ""P"": 12.0, ""O"": 50.0, ""H"": 3.0}",2121.755,#556B2F,monoclinic
Arrojadite-(PbFe),PbFe2+(CaNa2)Fe2+13Al(PO4)11(PO3OH)(OH)2,"{""Pb"": 1.0, ""Fe"": 14.0, ""Ca"": 1.0, ""Na"": 2.0, ""Al"": 1.0, ""P"": 12.0, ""O"": 50.0, ""H"": 3.0}",2276.732,#556B2F,monoclinic
Arrojadite-(SrFe),SrFe2+(CaNa2)Fe2+13Al(PO4)11(PO3OH)(OH)2,"{""Sr"": 1.0, ""Fe"": 14.0, ""Ca"": 1.0, ""Na"": 2.0, ""Al"": 1.0, ""P"": 12.0, ""O"": 50.0, ""H"": 3.0}",2157.152,#556B2F,monoclinic
Arsenatrotitanite,NaTi(AsO4)O,"{""Na"": 1.0, ""Ti"": 1.0, ""As"": 1.0, ""O"": 5.0}",225.774,#FFFFFF,monoclinic
Arsenic,As,"{""As"": 1.0}",74.922,#808080,hexagonal
Arseniosiderite,Ca2Fe3+3O2(AsO4)3·3H2O,"{""Ca"": 2.0, ""Fe"": 3.0, ""O"": 17.0, ""As"": 3.0, ""H"": 6.0}",750.488,#556B2F,monoclinic
Arsenocrandallite,CaAl3(AsO4)(AsO3OH)(OH)6,"{""Ca"": 1.0, ""Al"": 3.0, ""As"": 2.0, ""O"": 14.0, ""H"": 7.0}",501.91,#FFFFFF,hexagonal
Arsenoflorencite-(Ce),CeAl3(AsO4)2(OH)6,"{""Ce"": 1.0, ""Al"": 3.0, ""As"": 2.0, ""O"": 14.0, ""H"": 6.0}",600.944,#FFFFFF,hexagonal
Arsenoflorencite-(La),LaAl3(AsO4)2(OH)6,"{""La"": 1.0, ""Al"": 3.0, ""As"": 2.0, ""O"": 14.0, ""H"": 6.0}",599.734,#FFFFFF,hexagonal
Arsenogoldfieldite,Cu6Cu6(As2Te2)S13,"{""Cu"": 12.0, ""As"": 2.0, ""Te"": 2.0, ""S"": 13.0}",1584.376,#FFD700,cubic
Arsenogorceixite,BaAl3(AsO4)(AsO3OH)(OH)6,"{""Ba"": 1.0, ""Al"": 3.0, ""As"": 2.0, ""O"": 14.0, ""H"": 7.0}",599.162,#FFFFFF,hexagonal
Arsenogoyazite,SrAl3(AsO4)(AsO3OH)(OH)6,"{""Sr"": 1.0, ""Al"": 3.0, ""As"": 2.0, ""O"": 14.0, ""H"": 7.0}",549.452,#FFFFFF,hexagonal
Arsenohauchecornite,Ni18Bi3AsS16,"{""Ni"": 18.0, ""Bi"": 3.0, ""As"": 1.0, ""S"": 16.0}",2271.296,#FFD700,tetragonal
Arsenolamprite,As,"{""As"": 1.0}",74.922,#808080,orthorhombic
Arsenolite,As2O3,"{""As"": 2.0, ""O"": 3.0}",197.841,#808080,cubic
Arsenopalladinite,Pd8As3,"{""Pd"": 8.0, ""As"": 3.0}",1076.126,#808080,triclinic
Arsenopyrite,FeAsS,"{""Fe"": 1.0, ""As"": 1.0, ""S"": 1.0}",162.827,#DAA520,monoclinic
Arsenotucekite,Ni18Sb3AsS16,"{""Ni"": 18.0, ""Sb"": 3.0, ""As"": 1.0, ""S"": 16.0}",2009.636,#FFD700,tetragonal
Arsenoustalecite,Cu6Cu6(As2Te2)Se13,"{""Cu"": 12.0, ""As"": 2.0, ""Te"": 2.0, ""Se"": 13.0}",2194.219,#FFFFFF,cubic
Arsenovanmeersscheite,U(UO2)3(AsO4)2(OH)6·4H2O,"{""U"": 4.0, ""O"": 24.0, ""As"": 2.0, ""H"": 14.0}",1500.052,#FFFFFF,orthorhombic
Arsenowagnerite,Mg2(AsO4)F,"{""Mg"": 2.0, ""As"": 1.0, ""O"": 4.0, ""F"": 1.0}",206.526,#FFFFFF,monoclinic
Arsentsumebite,Pb2Cu(AsO4)(SO4)(OH),"{""Pb"": 2.0, ""Cu"": 1.0, ""As"": 1.0, ""O"": 9.0, ""S"": 1.0, ""H"": 1.0}",729.927,#FFFFFF,monoclinic
Arsenudinaite,NaMg4(AsO4)3,"{""Na"": 1.0, ""Mg"": 4.0, ""As"": 3.0, ""O"": 12.0}",536.964,#FFFFFF,tetragonal
Arsenuranospathite,Al(UO2)2(AsO4)2F·20H2O,"{""Al"": 1.0, ""U"": 2.0, ""O"": 32.0, ""As"": 2.0, ""F"": 1.0, ""H"": 40.0}",1224.172,#FFFFFF,tetragonal
Arsenuranylite,Ca(UO2)4(AsO4)2(OH)4·6H2O,"{""Ca"": 1.0, ""U"": 4.0, ""O"": 26.0, ""As"": 2.0, ""H"": 16.0}",1574.144,#FFFFFF,orthorhombic
Arsiccioite,AgHg2TlAs2S6,"{""Ag"": 1.0, ""Hg"": 2.0, ""Tl"": 1.0, ""As"": 2.0, ""S"": 6.0}",1055.634,#FFD700,tetragonal
Arsmirandite,Na18Cu12Fe3+O8(AsO4)8Cl5,"{""Na"": 18.0, ""Cu"": 12.0, ""Fe"": 1.0, ""O"": 40.0, ""As"": 8.0, ""Cl"": 5.0}",2648.803,#556B2F,monoclinic
Arthurite,CuFe3+2(AsO4)2(OH)2·4H2O,"{""Cu"": 1.0, ""Fe"": 2.0, ""As"": 2.0, ""O"": 14.0, ""H"": 10.0}",559.146,#556B2F,monoclinic
Artinite,Mg2(CO3)(OH)2·3H2O,"{""Mg"": 2.0, ""C"": 1.0, ""O"": 8.0, ""H"": 8.0}",196.677,#FFFFFF,monoclinic
Artroeite,PbAlF3(OH)2,"{""Pb"": 1.0, ""Al"": 1.0, ""F"": 3.0, ""O"": 2.0, ""H"": 2.0}",325.19,#FFFFFF,triclinic
Arupite,Ni3(PO4)2·8H2O,"{""Ni"": 3.0, ""P"": 2.0, ""O"": 16.0, ""H"": 16.0}",510.139,#FFFFFF,monoclinic
Arzamastsevite,K6Al5Si6O20(OH)4Cl,"{""K"": 6.0, ""Al"": 5.0, ""Si"": 6.0, ""O"": 24.0, ""H"": 4.0, ""Cl"": 1.0}",961.466,#FFFFFF,tetragonal
Arzrunite,Pb2Cu4(SO4)(OH)4Cl6·2H2O,"{""Pb"": 2.0, ""Cu"": 4.0, ""S"": 1.0, ""O"": 10.0, ""H"": 8.0, ""Cl"": 6.0}",1081.398,#FFFFFF,
Asagiite,NiCu4(SO4)2(OH)6·6H2O,"{""Ni"": 1.0, ""Cu"": 4.0, ""S"": 2.0, ""O"": 20.0, ""H"": 18.0}",715.121,#FFFFFF,monoclinic
Asbecasite,Ca3TiAs6Be2Si2O20,"{""Ca"": 3.0, ""Ti"": 1.0, ""As"": 6.0, ""Be"": 2.0, ""Si"": 2.0, ""O"": 20.0}",1011.8074,#FFFFFF,hexagonal
Asgruvanite-(Ce),Ce16Ca5Al(SiO4)6(AsO3)8(CO3)2Cl4F3(OH)2,"{""Ce"": 16.0, ""Ca"": 5.0, ""Al"": 1.0, ""Si"": 6.0, ""O"": 56.0, ""As"": 8.0, ""C"": 2.0, ""Cl"": 4.0, ""F"": 3.0, ""H"": 2.0}",4357.954,#FFFFFF,hexagonal
Ashburtonite,HCu4Pb4Si4O12(HCO3)4(OH)4Cl,"{""H"": 9.0, ""Cu"": 4.0, ""Pb"": 4.0, ""Si"": 4.0, ""O"": 28.0, ""C"": 4.0, ""Cl"": 1.0}",1735.862,#FFFFFF,tetragonal
Ashcroftine-(Y),K5Na5Y12Si28O70(OH)2(CO3)8·8H2O,"{""K"": 5.0, ""Na"": 5.0, ""Y"": 12.0, ""Si"": 28.0, ""O"": 104.0, ""H"": 18.0, ""C"": 8.0}",3941.82,#FFFFFF,tetragonal
Asimowite,Fe2SiO4,"{""Fe"": 2.0, ""Si"": 1.0, ""O"": 4.0}",203.771,#8B4513,orthorhombic
Asisite,Pb7SiO8Cl2,"{""Pb"": 7.0, ""Si"": 1.0, ""O"": 8.0, ""Cl"": 2.0}",1677.377,#FFFFFF,tetragonal
Aspidolite,NaMg3(Si3Al)O10(OH)2,"{""Na"": 1.0, ""Mg"": 3.0, ""Si"": 3.0, ""Al"": 1.0, ""O"": 12.0, ""H"": 2.0}",401.146,#FFFFFF,triclinic
Asselbornite,Pb(UO2)4(BiO)3(AsO4)2(OH)7·4H2O,"{""Pb"": 1.0, ""U"": 4.0, ""O"": 30.0, ""Bi"": 3.0, ""As"": 2.0, ""H"": 15.0}",2431.194,#FFFFFF,cubic
Astrophyllite,K2NaFe2+7Ti2(Si4O12)2O2(OH)4F,"{""K"": 2.0, ""Na"": 1.0, ""Fe"": 7.0, ""Ti"": 2.0, ""Si"": 8.0, ""O"": 30.0, ""H"": 4.0, ""F"": 1.0}",1315.515,#556B2F,triclinic
Atacamite,Cu2Cl(OH)3,"{""Cu"": 2.0, ""Cl"": 1.0, ""O"": 3.0, ""H"": 3.0}",213.563,#FFFFFF,orthorhombic
Atelestite,Bi2O(AsO4)(OH),"{""Bi"": 2.0, ""O"": 6.0, ""As"": 1.0, ""H"": 1.0}",589.884,#FFFFFF,monoclinic
Atelisite-(Y),Y4Si3O8(OH)8,"{""Y"": 4.0, ""Si"": 3.0, ""O"": 16.0, ""H"": 8.0}",703.927,#FFFFFF,tetragonal
Atencioite,Ca2Fe2+3Mg2Be4(PO4)6(OH)4·6H2O,"{""Ca"": 2.0, ""Fe"": 3.0, ""Mg"": 2.0, ""Be"": 4.0, ""P"": 6.0, ""O"": 34.0, ""H"": 16.0}",1078.2878,#556B2F,triclinic
Athabascaite,Cu5Se4,"{""Cu"": 5.0, ""Se"": 4.0}",633.614,#00BFFF,orthorhombic
Atlasovite,Cu2+6Fe3+Bi3+O4(SO4)5·KCl,"{""Cu"": 6.0, ""Fe"": 1.0, ""Bi"": 1.0, ""O"": 24.0, ""S"": 5.0, ""K"": 1.0, ""Cl"": 1.0}",1264.925,#556B2F,tetragonal
Attikaite,Ca3Cu2Al2(AsO4)4(OH)4·2H2O,"{""Ca"": 3.0, ""Cu"": 2.0, ""Al"": 2.0, ""As"": 4.0, ""O"": 22.0, ""H"": 8.0}",961.02,#FFFFFF,orthorhombic
Aubertite,Cu2+Al(SO4)2Cl·14H2O,"{""Cu"": 1.0, ""Al"": 1.0, ""S"": 2.0, ""O"": 22.0, ""Cl"": 1.0, ""H"": 28.0}",570.3,#FFFFFF,triclinic
Augelite,Al2(PO4)(OH)3,"{""Al"": 2.0, ""P"": 1.0, ""O"": 7.0, ""H"": 3.0}",199.955,#FFFFFF,monoclinic
Auriacusite,Fe3+Cu2+(AsO4)O,"{""Fe"": 1.0, ""Cu"": 1.0, ""As"": 1.0, ""O"": 5.0}",274.308,#556B2F,orthorhombic
Auricupride,Cu3Au,"{""Cu"": 3.0, ""Au"": 1.0}",387.608,#00BFFF,cubic
Aurihydrargyrumite,Au6Hg5,"{""Au"": 6.0, ""Hg"": 5.0}",2184.77,#FFD700,hexagonal
Aurivilliusite,Hg1+Hg2+OI,"{""Hg"": 2.0, ""O"": 1.0, ""I"": 1.0}",544.079,#FFFFFF,monoclinic
Auropearceite,[Ag9AuS4][Ag6As2S7],"{""Ag"": 15.0, ""Au"": 1.0, ""S"": 11.0, ""As"": 2.0}",2317.524,#FFD700,hexagonal
Auropolybasite,[Ag9AuS4][Ag6Sb2S7],"{""Ag"": 15.0, ""Au"": 1.0, ""S"": 11.0, ""Sb"": 2.0}",2411.2,#A9A9A9,hexagonal
Auroselenide,AuSe,"{""Au"": 1.0, ""Se"": 1.0}",275.941,#FFD700,monoclinic
Aurostibite,AuSb2,"{""Au"": 1.0, ""Sb"": 2.0}",440.49,#FFD700,cubic
Autunite,Ca(UO2)2(PO4)2·10-12H2O,"{""Ca"": 1.0, ""U"": 2.0, ""O"": 24.0, ""P"": 2.0, ""H"": 24.0}",986.254,#FFFFFF,orthorhombic
Avdeevite,NaAl4(Be5Li)(Si6O18)2(H2O)1-2,"{""Na"": 1.0, ""Al"": 4.0, ""Be"": 5.0, ""Li"": 1.0, ""Si"": 12.0, ""O"": 38.0, ""H"": 4.0}",1131.933,#FFFFFF,hexagonal
Avdoninite,K2Cu5Cl8(OH)4·2H2O,"{""K"": 2.0, ""Cu"": 5.0, ""Cl"": 8.0, ""O"": 6.0, ""H"": 8.0}",783.584,#FFFFFF,monoclinic
Averievite,Cu5O2(VO4)2·CuCl2,"{""Cu"": 6.0, ""O"": 10.0, ""V"": 2.0, ""Cl"": 2.0}",714.05,#FFFFFF,hexagonal
Avicennite,Tl2O3,"{""Tl"": 2.0, ""O"": 3.0}",456.757,#FFFFFF,cubic
Avogadrite,KBF4,"{""K"": 1.0, ""B"": 1.0, ""F"": 4.0}",125.9,#FFFFFF,orthorhombic
Awaruite,Ni3Fe,"{""Ni"": 3.0, ""Fe"": 1.0}",231.924,#7FFF00,cubic
Axelite,Na14Cu7(AsO4)8F2Cl2,"{""Na"": 14.0, ""Cu"": 7.0, ""As"": 8.0, ""O"": 32.0, ""F"": 2.0, ""Cl"": 2.0}",1986.922,#FFFFFF,tetragonal
Axinite-(Fe),Ca4Fe2+2Al4[B2Si8O30](OH)2,"{""Ca"": 4.0, ""Fe"": 2.0, ""Al"": 4.0, ""B"": 2.0, ""Si"": 8.0, ""O"": 32.0, ""H"": 2.0}",1140.214,#556B2F,triclinic
Axinite-(Mg),Ca4Mg2Al4[B2Si8O30](OH)2,"{""Ca"": 4.0, ""Mg"": 2.0, ""Al"": 4.0, ""B"": 2.0, ""Si"": 8.0, ""O"": 32.0, ""H"": 2.0}",1077.134,#FFFFFF,triclinic
Azurite,Cu3(CO3)2(OH)2,"{""Cu"": 3.0, ""C"": 2.0, ""O"": 8.0, ""H"": 2.0}",344.668,#FFFFFF,monoclinic
Babanekite,Cu3(AsO4)2·8H2O,"{""Cu"": 3.0, ""As"": 2.0, ""O"": 16.0, ""H"": 16.0}",612.594,#FFFFFF,monoclinic
Babefphite,BaBe(PO4)F,"{""Ba"": 1.0, ""Be"": 1.0, ""P"": 1.0, ""O"": 4.0, ""F"": 1.0}",260.3102,#FFFFFF,triclinic
Babingtonite,Ca2Fe2+Fe3+Si5O14(OH),"{""Ca"": 2.0, ""Fe"": 2.0, ""Si"": 5.0, ""O"": 15.0, ""H"": 1.0}",573.264,#556B2F,triclinic
Babunaite-(Nd),Nd(AsO4),"{""Nd"": 1.0, ""As"": 1.0, ""O"": 4.0}",283.158,#808080,tetragonal
Bacaferrite,BaCaFe4O8,"{""Ba"": 1.0, ""Ca"": 1.0, ""Fe"": 4.0, ""O"": 8.0}",528.78,#556B2F,hexagonal
Backite,Pb2AlTeO6Cl,"{""Pb"": 2.0, ""Al"": 1.0, ""Te"": 1.0, ""O"": 6.0, ""Cl"": 1.0}",700.426,#FFFFFF,hexagonal
Badalovite,NaNaMg(MgFe3+)(AsO4)3,"{""Na"": 2.0, ""Mg"": 2.0, ""Fe"": 1.0, ""As"": 3.0, ""O"": 12.0}",567.189,#556B2F,monoclinic
Baddeleyite,ZrO2,"{""Zr"": 1.0, ""O"": 2.0}",123.222,#FFFFFF,orthorhombic
Badengzhuite,TiP,"{""Ti"": 1.0, ""P"": 1.0}",78.841,#FFFFFF,hexagonal
Bafertisite,Ba2Fe2+4Ti2(Si2O7)2O2(OH)2F2,"{""Ba"": 2.0, ""Fe"": 4.0, ""Ti"": 2.0, ""Si"": 4.0, ""O"": 18.0, ""H"": 2.0, ""F"": 2.0}",1034.108,#556B2F,monoclinic
Baghdadite,Ca6Zr2(Si2O7)2O4,"{""Ca"": 6.0, ""Zr"": 2.0, ""Si"": 4.0, ""O"": 18.0}",823.238,#FFFFFF,monoclinic
Bahianite,Al5Sb5+3O14(OH)2,"{""Al"": 5.0, ""Sb"": 3.0, ""O"": 16.0, ""H"": 2.0}",758.19,#FFFFFF,monoclinic
Baiamareite,Ag4Pb12Fe4Sb20S48,"{""Ag"": 4.0, ""Pb"": 12.0, ""Fe"": 4.0, ""Sb"": 20.0, ""S"": 48.0}",7115.34,#DAA520,monoclinic
Bainbridgeite-(NdCe),Na2Ba2NdCe(CO3)6·3H2O,"{""Na"": 2.0, ""Ba"": 2.0, ""Nd"": 1.0, ""Ce"": 1.0, ""C"": 6.0, ""O"": 21.0, ""H"": 6.0}",1019.093,#FFFFFF,triclinic
Bainbridgeite-(YCe),Na2Ba2YCe(CO3)6·3H2O,"{""Na"": 2.0, ""Ba"": 2.0, ""Y"": 1.0, ""Ce"": 1.0, ""C"": 6.0, ""O"": 21.0, ""H"": 6.0}",963.759,#FFFFFF,triclinic
Bairdite,Pb2Cu2+4Te6+2O10(OH)2(SO4)·H2O,"{""Pb"": 2.0, ""Cu"": 4.0, ""Te"": 2.0, ""O"": 17.0, ""H"": 4.0, ""S"": 1.0}",1231.859,#FFFFFF,monoclinic
Bakakinite,Ca2V2O7,"{""Ca"": 2.0, ""V"": 2.0, ""O"": 7.0}",294.033,#FFFFFF,triclinic
Bakhchisaraitsevite,Na2Mg5(PO4)4·7H2O,"{""Na"": 2.0, ""Mg"": 5.0, ""P"": 4.0, ""O"": 23.0, ""H"": 14.0}",673.49,#FFFFFF,monoclinic
Baksanite,Bi6Te2S3,"{""Bi"": 6.0, ""Te"": 2.0, ""S"": 3.0}",1605.26,#A9A9A9,hexagonal
Balangeroite,Mg21Si8O27(OH)20,"{""Mg"": 21.0, ""Si"": 8.0, ""O"": 47.0, ""H"": 20.0}",1507.198,#FFFFFF,triclinic
Balestraite,KLi2V5+Si4O12,"{""K"": 1.0, ""Li"": 2.0, ""V"": 1.0, ""Si"": 4.0, ""O"": 12.0}",408.248,#FFFFFF,monoclinic
Baliczunicite,Bi2O(SO4)2,"{""Bi"": 2.0, ""O"": 9.0, ""S"": 2.0}",626.071,#FFFF00,triclinic
Balipholite,LiBaMg2Al3(Si2O6)2(OH)8,"{""Li"": 1.0, ""Ba"": 1.0, ""Mg"": 2.0, ""Al"": 3.0, ""Si"": 4.0, ""O"": 20.0, ""H"": 8.0}",714.21,#FFFFFF,orthorhombic
Balkanite,Ag5Cu9HgS8,"{""Ag"": 5.0, ""Cu"": 9.0, ""Hg"": 1.0, ""S"": 8.0}",1568.334,#A9A9A9,monoclinic
Balyakinite,Cu2+(Te4+O3),"{""Cu"": 1.0, ""Te"": 1.0, ""O"": 3.0}",239.143,#00BFFF,orthorhombic
Bamfordite,Fe3+Mo2O6(OH)3·H2O,"{""Fe"": 1.0, ""Mo"": 2.0, ""O"": 10.0, ""H"": 5.0}",412.775,#556B2F,triclinic
Banalsite,Na2BaAl4Si4O16,"{""Na"": 2.0, ""Ba"": 1.0, ""Al"": 4.0, ""Si"": 4.0, ""O"": 16.0}",659.562,#FFFFFF,orthorhombic
Bandylite,CuB(OH)4Cl,"{""Cu"": 1.0, ""B"": 1.0, ""O"": 4.0, ""H"": 4.0, ""Cl"": 1.0}",177.834,#FFFFFF,tetragonal
Bararite,(NH4)2SiF6,"{""N"": 2.0, ""H"": 8.0, ""Si"": 1.0, ""F"": 6.0}",178.151,#FFFFFF,hexagonal
Baratovite,KLi3Ca7Ti2(SiO3)12F2,"{""K"": 1.0, ""Li"": 3.0, ""Ca"": 7.0, ""Ti"": 2.0, ""Si"": 12.0, ""O"": 36.0, ""F"": 2.0}",1387.178,#FFFFFF,monoclinic
Barberiite,(NH4)BF4,"{""N"": 1.0, ""H"": 4.0, ""B"": 1.0, ""F"": 4.0}",104.841,#FFFFFF,orthorhombic
Barbosalite,Fe2+Fe3+2(PO4)2(OH)2,"{""Fe"": 3.0, ""P"": 2.0, ""O"": 10.0, ""H"": 2.0}",391.489,#556B2F,monoclinic
Barentsite,Na7Al(HCO3)2(CO3)2F4,"{""Na"": 7.0, ""Al"": 1.0, ""H"": 2.0, ""C"": 4.0, ""O"": 12.0, ""F"": 4.0}",505.952,#FFFFFF,triclinic
Barikaite,Ag3Pb10(Sb8As11)Σ19S40,"{""Ag"": 3.0, ""Pb"": 10.0, ""Sb"": 152.0, ""As"": 209.0, ""S"": 40.0}",37844.228,#708090,monoclinic
Barioferrite,BaFe3+12O19,"{""Ba"": 1.0, ""Fe"": 12.0, ""O"": 19.0}",1111.451,#8B4513,hexagonal
Bariolakargiite,BaZrO3,"{""Ba"": 1.0, ""Zr"": 1.0, ""O"": 3.0}",276.551,#FFFFFF,cubic
Bario-orthojoaquinite,Ba4Fe2+2Ti2O2(SiO3)8·H2O,"{""Ba"": 4.0, ""Fe"": 2.0, ""Ti"": 2.0, ""O"": 27.0, ""Si"": 8.0, ""H"": 2.0}",1415.413,#556B2F,orthorhombic
Barioperovskite,BaTiO3,"{""Ba"": 1.0, ""Ti"": 1.0, ""O"": 3.0}",233.194,#FFFFFF,orthorhombic
Bariosincosite,Ba(VO)2(PO4)2·4H2O,"{""Ba"": 1.0, ""V"": 2.0, ""O"": 14.0, ""P"": 2.0, ""H"": 8.0}",533.212,#FFFFFF,monoclinic
Barlowite,Cu4BrF(OH)6,"{""Cu"": 4.0, ""Br"": 1.0, ""F"": 1.0, ""O"": 6.0, ""H"": 6.0}",455.128,#FFFFFF,hexagonal
Barnesite,Na2V5+6O16·3H2O,"{""Na"": 2.0, ""V"": 6.0, ""O"": 19.0, ""H"": 6.0}",661.661,#FFFFFF,monoclinic
Barrerite,Na2(Si7Al2)O18·6H2O,"{""Na"": 2.0, ""Si"": 7.0, ""Al"": 2.0, ""O"": 24.0, ""H"": 12.0}",692.611,#FFFFFF,orthorhombic
Barstowite,Pb4(CO3)Cl6·H2O,"{""Pb"": 4.0, ""C"": 1.0, ""O"": 4.0, ""Cl"": 6.0, ""H"": 2.0}",1119.523,#FFFFFF,monoclinic
Bartelkeite,PbFe2+Ge(Ge2O7)(OH)2·H2O,"{""Pb"": 1.0, ""Fe"": 1.0, ""Ge"": 3.0, ""O"": 10.0, ""H"": 4.0}",644.957,#556B2F,monoclinic
Bartonite,K6Fe20S26S,"{""K"": 6.0, ""Fe"": 20.0, ""S"": 27.0}",2217.108,#DAA520,tetragonal
Barylite,BaBe2Si2O7,"{""Ba"": 1.0, ""Be"": 2.0, ""Si"": 2.0, ""O"": 7.0}",323.5174,#FFFFFF,monoclinic
Baryte,Ba(SO4),"{""Ba"": 1.0, ""S"": 1.0, ""O"": 4.0}",233.386,#FFFF00,orthorhombic
Barytocalcite,BaCa(CO3)2,"{""Ba"": 1.0, ""Ca"": 1.0, ""C"": 2.0, ""O"": 6.0}",297.424,#FFFFFF,monoclinic
Barytolamprophyllite,(BaK)Ti2Na3Ti(Si2O7)2O2(OH)2,"{""Ba"": 1.0, ""K"": 1.0, ""Ti"": 3.0, ""Na"": 3.0, ""Si"": 4.0, ""O"": 18.0, ""H"": 2.0}",791.337,#FFFFFF,monoclinic
Bassetite,Fe2+(UO2)2(PO4)2(H2O)10,"{""Fe"": 1.0, ""U"": 2.0, ""O"": 22.0, ""P"": 2.0, ""H"": 20.0}",965.991,#556B2F,tetragonal