name,formula,elements,density,color,crystal_system,dna
Paxite,CuAs2,"{""Cu"": 1.0, ""As"": 2.0}",213.39,#00BFFF,monoclinic,"{""system"": ""monoclinic"", ""scale"": [0.7, 1.0, 1.3], ""optical"": {""transparent"": 0, ""refraction"": 0.0, ""birefringence"": 0.0}}"
Pecoraite,Ni3Si2O5(OH)4,"{""Ni"": 3.0, ""Si"": 2.0, ""O"": 9.0, ""H"": 4.0}",380.28,#FFFFFF,,"{""system"": """", ""scale"": [1.0, 1.0, 1.0], ""optical"": {""transparent"": 1, ""refraction"": 1.5, ""birefringence"": 0.01}}"
Pectolite,NaCa2Si3O8(OH),"{""Na"": 1.0, ""Ca"": 2.0, ""Si"": 3.0, ""O"": 9.0, ""H"": 1.0}",332.43,#FFFFFF,triclinic,"{""system"": ""triclinic"", ""scale"": [0.7, 1.0, 1.3], ""optical"": {""transparent"": 1, ""refraction"": 1.5, ""birefringence"": 0.01}}"
Peisleyite,Na3Al16(PO4)10(SO4)2(OH)17·20H2O,"{""Na"": 3.0, ""Al"": 16.0, ""P"": 10.0, ""O"": 85.0, ""S"": 2.0, ""H"": 57.0}",2291.93,#FFFFFF,triclinic,"{""system"": ""triclinic"", ""scale"": [0.7, 1.0, 1.3], ""optical"": {""transparent"": 1, ""refraction"": 1.5, ""birefringence"": 0.01}}"
Pekoite,CuPbBi11S18,"{""Cu"": 1.0, ""Pb"": 1.0, ""Bi"": 11.0, ""S"": 18.0}",3146.61,#708090,orthorhombic,"{""system"": ""orthorhombic"", ""scale"": [0.8, 1.0, 1.2], ""optical"": {""transparent"": 0, ""refraction"": 0.0, ""birefringence"": 0.0}}"
Pekovite,SrB2Si2O8,"{""Sr"": 1.0, ""B"": 2.0, ""Si"": 2.0, ""O"": 8.0}",293.42,#FFFFFF,orthorhombic,"{""system"": ""orthorhombic"", ""scale"": [0.8, 1.0, 1.2], ""optical"": {""transparent"": 1, ""refraction"": 1.5, ""birefringence"": 0.01}}"
Peligotite,Na6(UO2)(SO4)4(H2O)4,"{""Na"": 6.0, ""U"": 1.0, ""O"": 22.0, ""S"": 4.0, ""H"": 8.0}",864.27,#FFFFFF,triclinic,"{""system"": ""triclinic"", ""scale"": [0.7, 1.0, 1.3], ""optical"": {""transparent"": 1, ""refraction"": 1.5, ""birefringence"": 0.01}}"
Pellyite,Ba2CaFe2+2Si6O17,"{""Ba"": 2.0, ""Ca"": 1.0, ""Fe"": 2.0, ""Si"": 6.0, ""O"": 17.0}",866.98,#556B2F,orthorhombic,"{""system"": ""orthorhombic"", ""scale"": [0.8, 1.0, 1.2], ""optical"": {""transparent"": 0, ""refraction"": 0.0, ""birefringence"": 0.0}}"
Penberthycroftite,[Al6(AsO4)3(OH)9(H2O)5]·8H2O,"{""Al"": 6.0, ""As"": 3.0, ""O"": 34.0, ""H"": 35.0}",965.92,#FFFFFF,monoclinic,"{""system"": ""monoclinic"", ""scale"": [0.7, 1.0, 1.3], ""optical"": {""transparent"": 1, ""refraction"": 1.5, ""birefringence"": 0.01}}"
Pendevilleite-(Y),Mg2Y3Al(UO2)2(CO3)7(OH)6(H2O)16,"{""Mg"": 2.0, ""Y"": 3.0, ""Al"": 1.0, ""U"": 2.0, ""O"": 47.0, ""C"": 7.0, ""H"": 38.0}",1692.76,#FFFFFF,triclinic,"{""system"": ""triclinic"", ""scale"": [0.7, 1.0, 1.3], ""optical"": {""transparent"": 1, ""refraction"": 1.5, ""birefringence"": 0.01}}"
Penfieldite,Pb2Cl3(OH),"{""Pb"": 2.0, ""Cl"": 3.0, ""O"": 1.0, ""H"": 1.0}",537.76,#FFFFFF,hexagonal,"{""system"": ""hexagonal"", ""scale"": [1.0, 1.0, 1.6], ""optical"": {""transparent"": 1, ""refraction"": 1.5, ""birefringence"": 0.01}}"
Pengite,(Pb8Sb3+3)Sb5+9O35,"{""Pb"": 8.0, ""Sb"": 12.0, ""O"": 35.0}",3678.72,#A9A9A9,hexagonal,"{""system"": ""hexagonal"", ""scale"": [1.0, 1.0, 1.6], ""optical"": {""transparent"": 0, ""refraction"": 0.0, ""birefringence"": 0.0}}"
Penikisite,BaMg2Al2(PO4)3(OH)3,"{""Ba"": 1.0, ""Mg"": 2.0, ""Al"": 2.0, ""P"": 3.0, ""O"": 15.0, ""H"": 3.0}",575.84,#FFFFFF,monoclinic,"{""system"": ""monoclinic"", ""scale"": [0.7, 1.0, 1.3], ""optical"": {""transparent"": 1, ""refraction"": 1.5, ""birefringence"": 0.01}}"
Penkvilksite,Na2TiSi4O11·2H2O,"{""Na"": 2.0, ""Ti"": 1.0, ""Si"": 4.0, ""O"": 13.0, ""H"": 4.0}",418.24,#FFFFFF,monoclinic,"{""system"": ""monoclinic"", ""scale"": [0.7, 1.0, 1.3], ""optical"": {""transparent"": 1, ""refraction"": 1.5, ""birefringence"": 0.01}}"
Penobsquisite,Ca2Fe2+[B9O13(OH)6]Cl·4H2O,"{""Ca"": 2.0, ""Fe"": 1.0, ""B"": 9.0, ""O"": 23.0, ""H"": 14.0, ""Cl"": 1.0}",650.86,#556B2F,monoclinic,"{""system"": ""monoclinic"", ""scale"": [0.7, 1.0, 1.3], ""optical"": {""transparent"": 0, ""refraction"": 0.0, ""birefringence"": 0.0}}"
Penriceite,[Mg(H2O)6][Na(H2O)2Al3(PO4)2F6]·H2O,"{""Mg"": 1.0, ""H"": 18.0, ""O"": 17.0, ""Na"": 1.0, ""Al"": 3.0, ""P"": 2.0, ""F"": 6.0}",594.32,#FFFFFF,monoclinic,"{""system"": ""monoclinic"", ""scale"": [0.7, 1.0, 1.3], ""optical"": {""transparent"": 1, ""refraction"": 1.5, ""birefringence"": 0.01}}"
Pentagonite,CaV4+OSi4O10·4H2O,"{""Ca"": 1.0, ""V"": 1.0, ""O"": 15.0, ""Si"": 4.0, ""H"": 8.0}",451.44,#FFFFFF,orthorhombic,"{""system"": ""orthorhombic"", ""scale"": [0.8, 1.0, 1.2], ""optical"": {""transparent"": 1, ""refraction"": 1.5, ""birefringence"": 0.01}}"
Pentahydrite,Mg(SO4)·5H2O,"{""Mg"": 1.0, ""S"": 1.0, ""O"": 9.0, ""H"": 10.0}",210.45,#FFFFFF,triclinic,"{""system"": ""triclinic"", ""scale"": [0.7, 1.0, 1.3], ""optical"": {""transparent"": 1, ""refraction"": 1.5, ""birefringence"": 0.01}}"
Pentahydroborite,CaB2O(OH)6·2H2O,"{""Ca"": 1.0, ""B"": 2.0, ""O"": 9.0, ""H"": 10.0}",215.78,#FFFFFF,triclinic,"{""system"": ""triclinic"", ""scale"": [0.7, 1.0, 1.3], ""optical"": {""transparent"": 1, ""refraction"": 1.5, ""birefringence"": 0.01}}"
Perboeite-(Ce),(CaCe3)(Al3Fe2+)(Si2O7)(SiO4)3O(OH)2,"{""Ca"": 1.0, ""Ce"": 3.0, ""Al"": 3.0, ""Fe"": 1.0, ""Si"": 5.0, ""O"": 22.0, ""H"": 2.0}",1091.7,#556B2F,monoclinic,"{""system"": ""monoclinic"", ""scale"": [0.7, 1.0, 1.3], ""optical"": {""transparent"": 0, ""refraction"": 0.0, ""birefringence"": 0.0}}"
Perboeite-(La),(CaLa3)(Al3Fe2+)[Si2O7][SiO4]3O(OH)2,"{""Ca"": 1.0, ""La"": 3.0, ""Al"": 3.0, ""Fe"": 1.0, ""Si"": 5.0, ""O"": 22.0, ""H"": 2.0}",1088.07,#556B2F,monoclinic,"{""system"": ""monoclinic"", ""scale"": [0.7, 1.0, 1.3], ""optical"": {""transparent"": 0, ""refraction"": 0.0, ""birefringence"": 0.0}}"
Perchiazziite,Co2(CO3)(OH)2,"{""Co"": 2.0, ""C"": 1.0, ""O"": 5.0, ""H"": 2.0}",211.89,#FFFFFF,monoclinic,"{""system"": ""monoclinic"", ""scale"": [0.7, 1.0, 1.3], ""optical"": {""transparent"": 1, ""refraction"": 1.5, ""birefringence"": 0.01}}"
Percleveite-(Ce),Ce2Si2O7,"{""Ce"": 2.0, ""Si"": 2.0, ""O"": 7.0}",448.42,#FFFFFF,tetragonal,"{""system"": ""tetragonal"", ""scale"": [1.0, 1.0, 1.4], ""optical"": {""transparent"": 1, ""refraction"": 1.5, ""birefringence"": 0.01}}"
Percleveite-(La),La2Si2O7,"{""La"": 2.0, ""Si"": 2.0, ""O"": 7.0}",446.0,#FFFFFF,tetragonal,"{""system"": ""tetragonal"", ""scale"": [1.0, 1.0, 1.4], ""optical"": {""transparent"": 1, ""refraction"": 1.5, ""birefringence"": 0.01}}"
Peretaite,CaSb3+4O4(SO4)2(OH)2·2H2O,"{""Ca"": 1.0, ""Sb"": 4.0, ""O"": 16.0, ""S"": 2.0, ""H"": 6.0}",853.29,#FFFFFF,monoclinic,"{""system"": ""monoclinic"", ""scale"": [0.7, 1.0, 1.3], ""optical"": {""transparent"": 1, ""refraction"": 1.5, ""birefringence"": 0.01}}"
Periclase,MgO,"{""Mg"": 1.0, ""O"": 1.0}",40.31,#FFFFFF,cubic,"{""system"": ""cubic"", ""scale"": [1.0, 1.0, 1.0], ""optical"": {""transparent"": 1, ""refraction"": 1.5, ""birefringence"": 0.0}}"
Perite,PbBiO2Cl,"{""Pb"": 1.0, ""Bi"": 1.0, ""O"": 2.0, ""Cl"": 1.0}",483.63,#FFFFFF,orthorhombic,"{""system"": ""orthorhombic"", ""scale"": [0.8, 1.0, 1.2], ""optical"": {""transparent"": 1, ""refraction"": 1.5, ""birefringence"": 0.01}}"
Perlialite,K9NaCa(Si24Al12)O72·15H2O,"{""K"": 9.0, ""Na"": 1.0, ""Ca"": 1.0, ""Si"": 24.0, ""Al"": 12.0, ""O"": 87.0, ""H"": 30.0}",2835.13,#FFFFFF,hexagonal,"{""system"": ""hexagonal"", ""scale"": [1.0, 1.0, 1.6], ""optical"": {""transparent"": 1, ""refraction"": 1.5, ""birefringence"": 0.01}}"
Permingeatite,Cu3SbSe4,"{""Cu"": 3.0, ""Sb"": 1.0, ""Se"": 4.0}",628.25,#00BFFF,tetragonal,"{""system"": ""tetragonal"", ""scale"": [1.0, 1.0, 1.4], ""optical"": {""transparent"": 0, ""refraction"": 0.0, ""birefringence"": 0.0}}"
Perovskite,CaTiO3,"{""Ca"": 1.0, ""Ti"": 1.0, ""O"": 3.0}",135.95,#FFFFFF,cubic,"{""system"": ""cubic"", ""scale"": [1.0, 1.0, 1.0], ""optical"": {""transparent"": 1, ""refraction"": 1.5, ""birefringence"": 0.0}}"
Perrierite-(Ce),Ce4MgFe3+2Ti2O8(Si2O7)2,"{""Ce"": 4.0, ""Mg"": 1.0, ""Fe"": 2.0, ""Ti"": 2.0, ""O"": 22.0, ""Si"": 4.0}",1256.59,#556B2F,monoclinic,"{""system"": ""monoclinic"", ""scale"": [0.7, 1.0, 1.3], ""optical"": {""transparent"": 0, ""refraction"": 0.0, ""birefringence"": 0.0}}"
Pertoldite,GeO2,"{""Ge"": 1.0, ""O"": 2.0}",104.63,#FFFFFF,hexagonal,"{""system"": ""hexagonal"", ""scale"": [1.0, 1.0, 1.6], ""optical"": {""transparent"": 1, ""refraction"": 1.5, ""birefringence"": 0.01}}"
Pertsevite-(F),Mg2(BO3)F,"{""Mg"": 2.0, ""B"": 1.0, ""O"": 3.0, ""F"": 1.0}",126.43,#FFFFFF,orthorhombic,"{""system"": ""orthorhombic"", ""scale"": [0.8, 1.0, 1.2], ""optical"": {""transparent"": 1, ""refraction"": 1.5, ""birefringence"": 0.01}}"
Pertsevite-(OH),Mg2(BO3)(OH),"{""Mg"": 2.0, ""B"": 1.0, ""O"": 4.0, ""H"": 1.0}",124.44,#FFFFFF,orthorhombic,"{""system"": ""orthorhombic"", ""scale"": [0.8, 1.0, 1.2], ""optical"": {""transparent"": 1, ""refraction"": 1.5, ""birefringence"": 0.01}}"
Petalite,LiAlSi4O10,"{""Li"": 1.0, ""Al"": 1.0, ""Si"": 4.0, ""O"": 10.0}",306.28,#FFFFFF,monoclinic,"{""system"": ""monoclinic"", ""scale"": [0.7, 1.0, 1.3], ""optical"": {""transparent"": 1, ""refraction"": 1.5, ""birefringence"": 0.01}}"
Peterbaylissite,Hg3(CO3)(OH)·2H2O,"{""Hg"": 3.0, ""C"": 1.0, ""O"": 6.0, ""H"": 5.0}",714.82,#FFFFFF,orthorhombic,"{""system"": ""orthorhombic"", ""scale"": [0.8, 1.0, 1.2], ""optical"": {""transparent"": 1, ""refraction"": 1.5, ""birefringence"": 0.01}}"
Petermegawite,Al6(Se4+O3)3[SiO3(OH)](OH)9·10H2O,"{""Al"": 6.0, ""Se"": 3.0, ""O"": 32.0, ""Si"": 1.0, ""H"": 30.0}",969.09,#FFFFFF,orthorhombic,"{""system"": ""orthorhombic"", ""scale"": [0.8, 1.0, 1.2], ""optical"": {""transparent"": 1, ""refraction"": 1.5, ""birefringence"": 0.01}}"
Petersenite-(Ce),Na4Ce2(CO3)5,"{""Na"": 4.0, ""Ce"": 2.0, ""C"": 5.0, ""O"": 15.0}",672.25,#FFFFFF,monoclinic,"{""system"": ""monoclinic"", ""scale"": [0.7, 1.0, 1.3], ""optical"": {""transparent"": 1, ""refraction"": 1.5, ""birefringence"": 0.01}}"
Petersite-(Ce),Cu6Ce(PO4)3(OH)6·3H2O,"{""Cu"": 6.0, ""Ce"": 1.0, ""P"": 3.0, ""O"": 21.0, ""H"": 12.0}",962.43,#FFFFFF,hexagonal,"{""system"": ""hexagonal"", ""scale"": [1.0, 1.0, 1.6], ""optical"": {""transparent"": 1, ""refraction"": 1.5, ""birefringence"": 0.01}}"
Petersite-(La),Cu6La(PO4)3(OH)6·3H2O,"{""Cu"": 6.0, ""La"": 1.0, ""P"": 3.0, ""O"": 21.0, ""H"": 12.0}",961.22,#FFFFFF,hexagonal,"{""system"": ""hexagonal"", ""scale"": [1.0, 1.0, 1.6], ""optical"": {""transparent"": 1, ""refraction"": 1.5, ""birefringence"": 0.01}}"
Petersite-(Y),Cu6Y(PO4)3(OH)6·3H2O,"{""Cu"": 6.0, ""Y"": 1.0, ""P"": 3.0, ""O"": 21.0, ""H"": 12.0}",911.22,#FFFFFF,hexagonal,"{""system"": ""hexagonal"", ""scale"": [1.0, 1.0, 1.6], ""optical"": {""transparent"": 1, ""refraction"": 1.5, ""birefringence"": 0.01}}"
Petitjeanite,Bi3O(PO4)2(OH),"{""Bi"": 3.0, ""O"": 10.0, ""P"": 2.0, ""H"": 1.0}",849.89,#FFFFFF,triclinic,"{""system"": ""triclinic"", ""scale"": [0.7, 1.0, 1.3], ""optical"": {""transparent"": 1, ""refraction"": 1.5, ""birefringence"": 0.01}}"
Petricekite,CuSe2,"{""Cu"": 1.0, ""Se"": 2.0}",221.47,#00BFFF,orthorhombic,"{""system"": ""orthorhombic"", ""scale"": [0.8, 1.0, 1.2], ""optical"": {""transparent"": 0, ""refraction"": 0.0, ""birefringence"": 0.0}}"
Petrovicite,Cu3HgPbBiSe5,"{""Cu"": 3.0, ""Hg"": 1.0, ""Pb"": 1.0, ""Bi"": 1.0, ""Se"": 5.0}",1202.22,#FFFFFF,orthorhombic,"{""system"": ""orthorhombic"", ""scale"": [0.8, 1.0, 1.2], ""optical"": {""transparent"": 1, ""refraction"": 1.5, ""birefringence"": 0.01}}"
Petrovite,Na12Cu2(SO4)8,"{""Na"": 12.0, ""Cu"": 2.0, ""S"": 8.0, ""O"": 32.0}",1171.46,#FFFFFF,monoclinic,"{""system"": ""monoclinic"", ""scale"": [0.7, 1.0, 1.3], ""optical"": {""transparent"": 1, ""refraction"": 1.5, ""birefringence"": 0.01}}"
Petrovskaite,AuAgS,"{""Au"": 1.0, ""Ag"": 1.0, ""S"": 1.0}",336.9,#A9A9A9,monoclinic,"{""system"": ""monoclinic"", ""scale"": [0.7, 1.0, 1.3], ""optical"": {""transparent"": 0, ""refraction"": 0.0, ""birefringence"": 0.0}}"
Petscheckite,U4+Fe2+Nb2O8,"{""U"": 1.0, ""Fe"": 1.0, ""Nb"": 2.0, ""O"": 8.0}",607.7,#556B2F,hexagonal,"{""system"": ""hexagonal"", ""scale"": [1.0, 1.0, 1.6], ""optical"": {""transparent"": 0, ""refraction"": 0.0, ""birefringence"": 0.0}}"
Petterdite,PbCr2(CO3)2(OH)4·H2O,"{""Pb"": 1.0, ""Cr"": 2.0, ""C"": 2.0, ""O"": 11.0, ""H"": 6.0}",517.27,#FFFFFF,orthorhombic,"{""system"": ""orthorhombic"", ""scale"": [0.8, 1.0, 1.2], ""optical"": {""transparent"": 1, ""refraction"": 1.5, ""birefringence"": 0.01}}"
Petzite,Ag3AuTe2,"{""Ag"": 3.0, ""Au"": 1.0, ""Te"": 2.0}",775.78,#FFD700,cubic,"{""system"": ""cubic"", ""scale"": [1.0, 1.0, 1.0], ""optical"": {""transparent"": 0, ""refraction"": 0.0, ""birefringence"": 0.0}}"
Pezzottaite,CsLiBe2Al2Si6O18,"{""Cs"": 1.0, ""Li"": 1.0, ""Be"": 2.0, ""Al"": 2.0, ""Si"": 6.0, ""O"": 18.0}",668.37,#FFFFFF,hexagonal,"{""system"": ""hexagonal"", ""scale"": [1.0, 1.0, 1.6], ""optical"": {""transparent"": 1, ""refraction"": 1.5, ""birefringence"": 0.01}}"
Pfaffenbergite,KNa3(Al4Si12)O32,"{""K"": 1.0, ""Na"": 3.0, ""Al"": 4.0, ""Si"": 12.0, ""O"": 32.0}",1065.07,#FFFFFF,hexagonal,"{""system"": ""hexagonal"", ""scale"": [1.0, 1.0, 1.6], ""optical"": {""transparent"": 1, ""refraction"": 1.5, ""birefringence"": 0.01}}"
Pharmacolite,Ca(AsO3OH)·2H2O,"{""Ca"": 1.0, ""As"": 1.0, ""O"": 6.0, ""H"": 5.0}",216.04,#FFFFFF,monoclinic,"{""system"": ""monoclinic"", ""scale"": [0.7, 1.0, 1.3], ""optical"": {""transparent"": 1, ""refraction"": 1.5, ""birefringence"": 0.01}}"
Pharmacosiderite,KFe3+4(AsO4)3(OH)4·6-7H2O,"{""K"": 1.0, ""Fe"": 4.0, ""As"": 3.0, ""O"": 23.0, ""H"": 18.0}",873.4,#556B2F,cubic,"{""system"": ""cubic"", ""scale"": [1.0, 1.0, 1.0], ""optical"": {""transparent"": 0, ""refraction"": 0.0, ""birefringence"": 0.0}}"
Phaunouxite,Ca3(AsO4)2·11H2O,"{""Ca"": 3.0, ""As"": 2.0, ""O"": 19.0, ""H"": 22.0}",596.26,#FFFFFF,triclinic,"{""system"": ""triclinic"", ""scale"": [0.7, 1.0, 1.3], ""optical"": {""transparent"": 1, ""refraction"": 1.5, ""birefringence"": 0.01}}"
Phenakite,Be2(SiO4),"{""Be"": 2.0, ""Si"": 1.0, ""O"": 4.0}",110.11,#FFFFFF,hexagonal,"{""system"": ""hexagonal"", ""scale"": [1.0, 1.0, 1.6], ""optical"": {""transparent"": 1, ""refraction"": 1.5, ""birefringence"": 0.01}}"
Philipsbornite,PbAl3(AsO4)(AsO3OH)(OH)6,"{""Pb"": 1.0, ""Al"": 3.0, ""As"": 2.0, ""O"": 14.0, ""H"": 7.0}",669.04,#FFFFFF,hexagonal,"{""system"": ""hexagonal"", ""scale"": [1.0, 1.0, 1.6], ""optical"": {""transparent"": 1, ""refraction"": 1.5, ""birefringence"": 0.01}}"
Phillipsite-Ca,Ca3(Si10Al6)O32·12H2O,"{""Ca"": 3.0, ""Si"": 10.0, ""Al"": 6.0, ""O"": 44.0, ""H"": 24.0}",1291.21,#FFFFFF,orthorhombic,"{""system"": ""orthorhombic"", ""scale"": [0.8, 1.0, 1.2], ""optical"": {""transparent"": 1, ""refraction"": 1.5, ""birefringence"": 0.01}}"
Phillipsite-K,K6(Si10Al6)O32·12H2O,"{""K"": 6.0, ""Si"": 10.0, ""Al"": 6.0, ""O"": 44.0, ""H"": 24.0}",1405.57,#FFFFFF,orthorhombic,"{""system"": ""orthorhombic"", ""scale"": [0.8, 1.0, 1.2], ""optical"": {""transparent"": 1, ""refraction"": 1.5, ""birefringence"": 0.01}}"
Phillipsite-Na,Na6(Si10Al6)O32·12H2O,"{""Na"": 6.0, ""Si"": 10.0, ""Al"": 6.0, ""O"": 44.0, ""H"": 24.0}",1308.91,#FFFFFF,orthorhombic,"{""system"": ""orthorhombic"", ""scale"": [0.8, 1.0, 1.2], ""optical"": {""transparent"": 1, ""refraction"": 1.5, ""birefringence"": 0.01}}"
Philrothite,TlAs3S5,"{""Tl"": 1.0, ""As"": 3.0, ""S"": 5.0}",589.44,#FFD700,monoclinic,"{""system"": ""monoclinic"", ""scale"": [0.7, 1.0, 1.3], ""optical"": {""transparent"": 0, ""refraction"": 0.0, ""birefringence"": 0.0}}"
Phlogopite,KMg3(AlSi3O10)(OH)2,"{""K"": 1.0, ""Mg"": 3.0, ""Al"": 1.0, ""Si"": 3.0, ""O"": 12.0, ""H"": 2.0}",417.3,#FFFFFF,hexagonal,"{""system"": ""hexagonal"", ""scale"": [1.0, 1.0, 1.6], ""optical"": {""transparent"": 1, ""refraction"": 1.5, ""birefringence"": 0.01}}"
Phoenicochroite,Pb2O(CrO4),"{""Pb"": 2.0, ""O"": 5.0, ""Cr"": 1.0}",546.4,#228B22,monoclinic,"{""system"": ""monoclinic"", ""scale"": [0.7, 1.0, 1.3], ""optical"": {""transparent"": 0, ""refraction"": 0.0, ""birefringence"": 0.0}}"
Phosgenite,Pb2(CO3)Cl2,"{""Pb"": 2.0, ""C"": 1.0, ""O"": 3.0, ""Cl"": 2.0}",545.31,#FFFFFF,tetragonal,"{""system"": ""tetragonal"", ""scale"": [1.0, 1.0, 1.4], ""optical"": {""transparent"": 1, ""refraction"": 1.5, ""birefringence"": 0.01}}"
Phosinaite-(Ce),Na13Ca2Ce(SiO3)4(PO4)4,"{""Na"": 13.0, ""Ca"": 2.0, ""Ce"": 1.0, ""Si"": 4.0, ""O"": 28.0, ""P"": 4.0}",1203.39,#FFFFFF,orthorhombic,"{""system"": ""orthorhombic"", ""scale"": [0.8, 1.0, 1.2], ""optical"": {""transparent"": 1, ""refraction"": 1.5, ""birefringence"": 0.01}}"
Phosphammite,(NH4)2(PO3OH),"{""N"": 2.0, ""H"": 9.0, ""P"": 1.0, ""O"": 4.0}",132.06,#FFFFFF,monoclinic,"{""system"": ""monoclinic"", ""scale"": [0.7, 1.0, 1.3], ""optical"": {""transparent"": 1, ""refraction"": 1.5, ""birefringence"": 0.01}}"
Phosphocyclite-(Fe),Fe2+2(P4O12),"{""Fe"": 2.0, ""P"": 4.0, ""O"": 12.0}",427.58,#8B4513,monoclinic,"{""system"": ""monoclinic"", ""scale"": [0.7, 1.0, 1.3], ""optical"": {""transparent"": 0, ""refraction"": 0.0, ""birefringence"": 0.0}}"
Phosphocyclite-(Ni),Ni2(P4O12),"{""Ni"": 2.0, ""P"": 4.0, ""O"": 12.0}",433.26,#7FFF00,monoclinic,"{""system"": ""monoclinic"", ""scale"": [0.7, 1.0, 1.3], ""optical"": {""transparent"": 0, ""refraction"": 0.0, ""birefringence"": 0.0}}"
Phosphoferrite,Fe2+3(PO4)2·3H2O,"{""Fe"": 3.0, ""P"": 2.0, ""O"": 11.0, ""H"": 6.0}",411.54,#556B2F,orthorhombic,"{""system"": ""orthorhombic"", ""scale"": [0.8, 1.0, 1.2], ""optical"": {""transparent"": 0, ""refraction"": 0.0, ""birefringence"": 0.0}}"
Phosphohedyphane,Ca2Pb3(PO4)3Cl,"{""Ca"": 2.0, ""Pb"": 3.0, ""P"": 3.0, ""O"": 12.0, ""Cl"": 1.0}",1022.12,#FFFFFF,hexagonal,"{""system"": ""hexagonal"", ""scale"": [1.0, 1.0, 1.6], ""optical"": {""transparent"": 1, ""refraction"": 1.5, ""birefringence"": 0.01}}"
Phosphoinnelite,Na3Ba4Ti3Si4O14(PO4)2O2F,"{""Na"": 3.0, ""Ba"": 4.0, ""Ti"": 3.0, ""Si"": 4.0, ""O"": 24.0, ""P"": 2.0, ""F"": 1.0}",1339.2,#FFFFFF,triclinic,"{""system"": ""triclinic"", ""scale"": [0.7, 1.0, 1.3], ""optical"": {""transparent"": 1, ""refraction"": 1.5, ""birefringence"": 0.01}}"
Phosphorrosslerite,Mg(PO3OH)·7H2O,"{""Mg"": 1.0, ""P"": 1.0, ""O"": 11.0, ""H"": 15.0}",246.4,#FFFFFF,,"{""system"": """", ""scale"": [1.0, 1.0, 1.0], ""optical"": {""transparent"": 1, ""refraction"": 1.5, ""birefringence"": 0.01}}"
Phosphosiderite,Fe3+(PO4)·2H2O,"{""Fe"": 1.0, ""P"": 1.0, ""O"": 6.0, ""H"": 4.0}",186.85,#556B2F,monoclinic,"{""system"": ""monoclinic"", ""scale"": [0.7, 1.0, 1.3], ""optical"": {""transparent"": 0, ""refraction"": 0.0, ""birefringence"": 0.0}}"
Phosphovanadylite-Ba,Ba[V4+4P2O12(OH)4]·12H2O,"{""Ba"": 1.0, ""V"": 4.0, ""P"": 2.0, ""O"": 28.0, ""H"": 28.0}",879.25,#FFFFFF,cubic,"{""system"": ""cubic"", ""scale"": [1.0, 1.0, 1.0], ""optical"": {""transparent"": 1, ""refraction"": 1.5, ""birefringence"": 0.0}}"
Phosphovanadylite-Ca,Ca[V4+4P2O12(OH)4]·12H2O,"{""Ca"": 1.0, ""V"": 4.0, ""P"": 2.0, ""O"": 28.0, ""H"": 28.0}",782.0,#FFFFFF,cubic,"{""system"": ""cubic"", ""scale"": [1.0, 1.0, 1.0], ""optical"": {""transparent"": 1, ""refraction"": 1.5, ""birefringence"": 0.0}}"
Phosphowalpurgite,(UO2)Bi4O4(PO4)2·2H2O,"{""U"": 1.0, ""O"": 16.0, ""Bi"": 4.0, ""P"": 2.0, ""H"": 4.0}",1395.92,#FFFFFF,triclinic,"{""system"": ""triclinic"", ""scale"": [0.7, 1.0, 1.3], ""optical"": {""transparent"": 1, ""refraction"": 1.5, ""birefringence"": 0.01}}"
Phosphuranylite,KCa(H3O)3(UO2)7(PO4)4O4·8H2O,"{""K"": 1.0, ""Ca"": 1.0, ""H"": 25.0, ""O"": 45.0, ""U"": 7.0, ""P"": 4.0}",2614.47,#FFFFFF,orthorhombic,"{""system"": ""orthorhombic"", ""scale"": [0.8, 1.0, 1.2], ""optical"": {""transparent"": 1, ""refraction"": 1.5, ""birefringence"": 0.01}}"
Phoxite,(NH4)2Mg2(C2O4)(PO3OH)2(H2O)4,"{""N"": 2.0, ""H"": 18.0, ""Mg"": 2.0, ""C"": 2.0, ""O"": 16.0, ""P"": 2.0}",436.74,#FFFFFF,monoclinic,"{""system"": ""monoclinic"", ""scale"": [0.7, 1.0, 1.3], ""optical"": {""transparent"": 1, ""refraction"": 1.5, ""birefringence"": 0.01}}"