name,formula,elements,density,color,crystal_system,dna
Sanderite,Mg(SO4)·2H2O,"{""Mg"": 1.0, ""S"": 1.0, ""O"": 6.0, ""H"": 4.0}",156.4,#FFFFFF,orthorhombic,"{""system"": ""orthorhombic"", ""scale"": [0.8, 1.0, 1.2], ""optical"": {""transparent"": 1, ""refraction"": 1.5, ""birefringence"": 0.01}}"
Sanguite,KCuCl3,"{""K"": 1.0, ""Cu"": 1.0, ""Cl"": 3.0}",209.0,#00BFFF,monoclinic,"{""system"": ""monoclinic"", ""scale"": [0.7, 1.0, 1.3], ""optical"": {""transparent"": 0, ""refraction"": 0.0, ""birefringence"": 0.0}}"
Sanidine,K(AlSi3O8),"{""K"": 1.0, ""Al"": 1.0, ""Si"": 3.0, ""O"": 8.0}",278.35,#FFFFFF,monoclinic,"{""system"": ""monoclinic"", ""scale"": [0.7, 1.0, 1.3], ""optical"": {""transparent"": 1, ""refraction"": 1.5, ""birefringence"": 0.01}}"
Sanjuanite,Al2(PO4)(SO4)(OH)·9H2O,"{""Al"": 2.0, ""P"": 1.0, ""O"": 18.0, ""S"": 1.0, ""H"": 19.0}",424.14,#FFFFFF,monoclinic,"{""system"": ""monoclinic"", ""scale"": [0.7, 1.0, 1.3], ""optical"": {""transparent"": 1, ""refraction"": 1.5, ""birefringence"": 0.01}}"
Sanromanite,Na2CaPb3(CO3)5,"{""Na"": 2.0, ""Ca"": 1.0, ""Pb"": 3.0, ""C"": 5.0, ""O"": 15.0}",1007.71,#FFFFFF,hexagonal,"{""system"": ""hexagonal"", ""scale"": [1.0, 1.0, 1.6], ""optical"": {""transparent"": 1, ""refraction"": 1.5, ""birefringence"": 0.01}}"
Santabarbaraite,Fe3+3(PO4)2(OH)3·5H2O,"{""Fe"": 3.0, ""P"": 2.0, ""O"": 16.0, ""H"": 13.0}",498.59,#556B2F,,"{""system"": """", ""scale"": [1.0, 1.0, 1.0], ""optical"": {""transparent"": 0, ""refraction"": 0.0, ""birefringence"": 0.0}}"
Santanaite,Pb11CrO16,"{""Pb"": 11.0, ""Cr"": 1.0, ""O"": 16.0}",2587.2,#228B22,hexagonal,"{""system"": ""hexagonal"", ""scale"": [1.0, 1.0, 1.6], ""optical"": {""transparent"": 0, ""refraction"": 0.0, ""birefringence"": 0.0}}"
Santarosaite,CuB2O4,"{""Cu"": 1.0, ""B"": 2.0, ""O"": 4.0}",149.17,#00BFFF,tetragonal,"{""system"": ""tetragonal"", ""scale"": [1.0, 1.0, 1.4], ""optical"": {""transparent"": 0, ""refraction"": 0.0, ""birefringence"": 0.0}}"
Santite,KB5O6(OH)4·2H2O,"{""K"": 1.0, ""B"": 5.0, ""O"": 12.0, ""H"": 8.0}",293.21,#FFFFFF,orthorhombic,"{""system"": ""orthorhombic"", ""scale"": [0.8, 1.0, 1.2], ""optical"": {""transparent"": 1, ""refraction"": 1.5, ""birefringence"": 0.01}}"
Sapozhnikovite,Na8(Al6Si6O24)(HS)2,"{""Na"": 8.0, ""Al"": 6.0, ""Si"": 6.0, ""O"": 24.0, ""H"": 2.0, ""S"": 2.0}",964.48,#FFFFFF,cubic,"{""system"": ""cubic"", ""scale"": [1.0, 1.0, 1.0], ""optical"": {""transparent"": 1, ""refraction"": 1.5, ""birefringence"": 0.0}}"
Sapphirine,Mg4(Mg3Al9)O4[Si3Al9O36],"{""Mg"": 7.0, ""Al"": 18.0, ""O"": 40.0, ""Si"": 3.0}",1380.08,#FFFFFF,monoclinic,"{""system"": ""monoclinic"", ""scale"": [0.7, 1.0, 1.3], ""optical"": {""transparent"": 1, ""refraction"": 1.5, ""birefringence"": 0.01}}"
Sarabauite,Sb4S6·CaSb6O10,"{""Sb"": 10.0, ""S"": 6.0, ""Ca"": 1.0, ""O"": 10.0}",1610.04,#FFFFFF,monoclinic,"{""system"": ""monoclinic"", ""scale"": [0.7, 1.0, 1.3], ""optical"": {""transparent"": 1, ""refraction"": 1.5, ""birefringence"": 0.01}}"
Saranchinaite,Na2Cu(SO4)2,"{""Na"": 2.0, ""Cu"": 1.0, ""S"": 2.0, ""O"": 8.0}",301.65,#FFFFFF,monoclinic,"{""system"": ""monoclinic"", ""scale"": [0.7, 1.0, 1.3], ""optical"": {""transparent"": 1, ""refraction"": 1.5, ""birefringence"": 0.01}}"
Saranovskite,SrCaFe2+ 2(Cr4Ti2)Ti12O38,"{""Sr"": 1.0, ""Ca"": 1.0, ""Fe"": 2.0, ""Cr"": 4.0, ""Ti"": 14.0, ""O"": 38.0}",1725.58,#556B2F,hexagonal,"{""system"": ""hexagonal"", ""scale"": [1.0, 1.0, 1.6], ""optical"": {""transparent"": 0, ""refraction"": 0.0, ""birefringence"": 0.0}}"
Sarcopside,Fe2+3(PO4)2,"{""Fe"": 3.0, ""P"": 2.0, ""O"": 8.0}",357.49,#8B4513,monoclinic,"{""system"": ""monoclinic"", ""scale"": [0.7, 1.0, 1.3], ""optical"": {""transparent"": 0, ""refraction"": 0.0, ""birefringence"": 0.0}}"
Sardignaite,BiMo2O7(OH)·2H2O,"{""Bi"": 1.0, ""Mo"": 2.0, ""O"": 10.0, ""H"": 5.0}",565.92,#FFFFFF,monoclinic,"{""system"": ""monoclinic"", ""scale"": [0.7, 1.0, 1.3], ""optical"": {""transparent"": 1, ""refraction"": 1.5, ""birefringence"": 0.01}}"
Sarmientite,Fe3+2(AsO4)(SO4)(OH)·5H2O,"{""Fe"": 2.0, ""As"": 1.0, ""O"": 14.0, ""S"": 1.0, ""H"": 11.0}",453.77,#556B2F,monoclinic,"{""system"": ""monoclinic"", ""scale"": [0.7, 1.0, 1.3], ""optical"": {""transparent"": 0, ""refraction"": 0.0, ""birefringence"": 0.0}}"
Sarrabusite,Pb5CuCl4(SeO3)4,"{""Pb"": 5.0, ""Cu"": 1.0, ""Cl"": 4.0, ""Se"": 4.0, ""O"": 12.0}",1749.19,#FFFFFF,monoclinic,"{""system"": ""monoclinic"", ""scale"": [0.7, 1.0, 1.3], ""optical"": {""transparent"": 1, ""refraction"": 1.5, ""birefringence"": 0.01}}"
Sarrochite,[Ca4(H2O)38][Mo8P2Fe3+3O37(OH)],"{""Ca"": 4.0, ""H"": 77.0, ""O"": 76.0, ""Mo"": 8.0, ""P"": 2.0, ""Fe"": 3.0}",2451.03,#556B2F,hexagonal,"{""system"": ""hexagonal"", ""scale"": [1.0, 1.0, 1.6], ""optical"": {""transparent"": 0, ""refraction"": 0.0, ""birefringence"": 0.0}}"
Sartorite,PbAs2S4,"{""Pb"": 1.0, ""As"": 2.0, ""S"": 4.0}",485.28,#708090,monoclinic,"{""system"": ""monoclinic"", ""scale"": [0.7, 1.0, 1.3], ""optical"": {""transparent"": 0, ""refraction"": 0.0, ""birefringence"": 0.0}}"
Sarvodaite,Al2(SO4)3·5H2O,"{""Al"": 2.0, ""S"": 3.0, ""O"": 17.0, ""H"": 10.0}",432.22,#FFFFFF,monoclinic,"{""system"": ""monoclinic"", ""scale"": [0.7, 1.0, 1.3], ""optical"": {""transparent"": 1, ""refraction"": 1.5, ""birefringence"": 0.01}}"
Sasaite,Al6(PO4)5(OH)3·36H2O,"{""Al"": 6.0, ""P"": 5.0, ""O"": 59.0, ""H"": 75.0}",1336.33,#FFFFFF,orthorhombic,"{""system"": ""orthorhombic"", ""scale"": [0.8, 1.0, 1.2], ""optical"": {""transparent"": 1, ""refraction"": 1.5, ""birefringence"": 0.01}}"
Sassite,Ti3+2Ti4+O5,"{""Ti"": 3.0, ""O"": 5.0}",223.61,#FFFFFF,orthorhombic,"{""system"": ""orthorhombic"", ""scale"": [0.8, 1.0, 1.2], ""optical"": {""transparent"": 1, ""refraction"": 1.5, ""birefringence"": 0.01}}"
Sassolite,B(OH)3,"{""B"": 1.0, ""O"": 3.0, ""H"": 3.0}",61.83,#FFFFFF,triclinic,"{""system"": ""triclinic"", ""scale"": [0.7, 1.0, 1.3], ""optical"": {""transparent"": 1, ""refraction"": 1.5, ""birefringence"": 0.01}}"
Satimolite,KNa2(Al5Mg2)[B12O18(OH)12](OH)6Cl4·4H2O,"{""K"": 1.0, ""Na"": 2.0, ""Al"": 5.0, ""Mg"": 2.0, ""B"": 12.0, ""O"": 40.0, ""H"": 26.0, ""Cl"": 4.0}",1206.33,#FFFFFF,orthorhombic,"{""system"": ""orthorhombic"", ""scale"": [0.8, 1.0, 1.2], ""optical"": {""transparent"": 1, ""refraction"": 1.5, ""birefringence"": 0.01}}"
Savelievaite,Mg2Cr3+O2(BO3),"{""Mg"": 2.0, ""Cr"": 1.0, ""O"": 5.0, ""B"": 1.0}",191.43,#FFFFFF,orthorhombic,"{""system"": ""orthorhombic"", ""scale"": [0.8, 1.0, 1.2], ""optical"": {""transparent"": 1, ""refraction"": 1.5, ""birefringence"": 0.01}}"
Sayrite,Pb2(UO2)5O6(OH)2·4H2O,"{""Pb"": 2.0, ""U"": 5.0, ""O"": 22.0, ""H"": 10.0}",1966.63,#FFFFFF,monoclinic,"{""system"": ""monoclinic"", ""scale"": [0.7, 1.0, 1.3], ""optical"": {""transparent"": 1, ""refraction"": 1.5, ""birefringence"": 0.01}}"
Sazhinite-(Ce),Na3CeSi6O15·2H2O,"{""Na"": 3.0, ""Ce"": 1.0, ""Si"": 6.0, ""O"": 17.0, ""H"": 4.0}",653.66,#FFFFFF,orthorhombic,"{""system"": ""orthorhombic"", ""scale"": [0.8, 1.0, 1.2], ""optical"": {""transparent"": 1, ""refraction"": 1.5, ""birefringence"": 0.01}}"
Sazhinite-(La),Na3LaSi6O15·2H2O,"{""Na"": 3.0, ""La"": 1.0, ""Si"": 6.0, ""O"": 17.0, ""H"": 4.0}",652.45,#FFFFFF,orthorhombic,"{""system"": ""orthorhombic"", ""scale"": [0.8, 1.0, 1.2], ""optical"": {""transparent"": 1, ""refraction"": 1.5, ""birefringence"": 0.01}}"
Sazykinaite-(Y),Na5YZrSi6O18·6H2O,"{""Na"": 5.0, ""Y"": 1.0, ""Zr"": 1.0, ""Si"": 6.0, ""O"": 24.0, ""H"": 12.0}",859.72,#FFFFFF,hexagonal,"{""system"": ""hexagonal"", ""scale"": [1.0, 1.0, 1.6], ""optical"": {""transparent"": 1, ""refraction"": 1.5, ""birefringence"": 0.01}}"
Sbacchiite,Ca2AlF7,"{""Ca"": 2.0, ""Al"": 1.0, ""F"": 7.0}",240.14,#FFFFFF,orthorhombic,"{""system"": ""orthorhombic"", ""scale"": [0.8, 1.0, 1.2], ""optical"": {""transparent"": 1, ""refraction"": 1.5, ""birefringence"": 0.01}}"
Sborgite,NaB5O6(OH)4·3H2O,"{""Na"": 1.0, ""B"": 5.0, ""O"": 13.0, ""H"": 10.0}",295.12,#FFFFFF,monoclinic,"{""system"": ""monoclinic"", ""scale"": [0.7, 1.0, 1.3], ""optical"": {""transparent"": 1, ""refraction"": 1.5, ""birefringence"": 0.01}}"
Scainiite,Pb14Sb30S54O5,"{""Pb"": 14.0, ""Sb"": 30.0, ""S"": 54.0, ""O"": 5.0}",8364.84,#FFFFFF,monoclinic,"{""system"": ""monoclinic"", ""scale"": [0.7, 1.0, 1.3], ""optical"": {""transparent"": 1, ""refraction"": 1.5, ""birefringence"": 0.01}}"
Scandio-fluoro-eckermannite,NaNa2(Mg4Sc)(Si8O22)F2,"{""Na"": 3.0, ""Mg"": 4.0, ""Sc"": 1.0, ""Si"": 8.0, ""O"": 22.0, ""F"": 2.0}",825.89,#FFFFFF,monoclinic,"{""system"": ""monoclinic"", ""scale"": [0.7, 1.0, 1.3], ""optical"": {""transparent"": 1, ""refraction"": 1.5, ""birefringence"": 0.01}}"
Scarbroite,Al5(CO3)(OH)13·5H2O,"{""Al"": 5.0, ""C"": 1.0, ""O"": 21.0, ""H"": 23.0}",506.09,#FFFFFF,triclinic,"{""system"": ""triclinic"", ""scale"": [0.7, 1.0, 1.3], ""optical"": {""transparent"": 1, ""refraction"": 1.5, ""birefringence"": 0.01}}"
Scawtite,Ca7(Si3O9)2(CO3)·2H2O,"{""Ca"": 7.0, ""Si"": 6.0, ""O"": 23.0, ""C"": 1.0, ""H"": 4.0}",833.14,#FFFFFF,monoclinic,"{""system"": ""monoclinic"", ""scale"": [0.7, 1.0, 1.3], ""optical"": {""transparent"": 1, ""refraction"": 1.5, ""birefringence"": 0.01}}"
Scenicite,[(UO2)(H2O)2(SO4)]2·3H2O,"{""U"": 2.0, ""O"": 19.0, ""H"": 14.0, ""S"": 2.0}",858.29,#FFFFFF,orthorhombic,"{""system"": ""orthorhombic"", ""scale"": [0.8, 1.0, 1.2], ""optical"": {""transparent"": 1, ""refraction"": 1.5, ""birefringence"": 0.01}}"
Schafarzikite,Fe2+(Sb3+)2O4,"{""Fe"": 1.0, ""Sb"": 2.0, ""O"": 4.0}",363.37,#8B4513,tetragonal,"{""system"": ""tetragonal"", ""scale"": [1.0, 1.0, 1.4], ""optical"": {""transparent"": 0, ""refraction"": 0.0, ""birefringence"": 0.0}}"
Schaferite,(NaCa2)Mg2(VO4)3,"{""Na"": 1.0, ""Ca"": 2.0, ""Mg"": 2.0, ""V"": 3.0, ""O"": 12.0}",496.59,#FFFFFF,cubic,"{""system"": ""cubic"", ""scale"": [1.0, 1.0, 1.0], ""optical"": {""transparent"": 1, ""refraction"": 1.5, ""birefringence"": 0.0}}"
Schairerite,Na21(SO4)7ClF6,"{""Na"": 21.0, ""S"": 7.0, ""O"": 28.0, ""Cl"": 1.0, ""F"": 6.0}",1304.66,#FFFFFF,hexagonal,"{""system"": ""hexagonal"", ""scale"": [1.0, 1.0, 1.6], ""optical"": {""transparent"": 1, ""refraction"": 1.5, ""birefringence"": 0.01}}"
Schaurteite,Ca3Ge(SO4)2(OH)6·3H2O,"{""Ca"": 3.0, ""Ge"": 1.0, ""S"": 2.0, ""O"": 17.0, ""H"": 12.0}",541.09,#FFFFFF,hexagonal,"{""system"": ""hexagonal"", ""scale"": [1.0, 1.0, 1.6], ""optical"": {""transparent"": 1, ""refraction"": 1.5, ""birefringence"": 0.01}}"
Scheelite,Ca(WO4),"{""Ca"": 1.0, ""W"": 1.0, ""O"": 4.0}",287.92,#FFFFFF,tetragonal,"{""system"": ""tetragonal"", ""scale"": [1.0, 1.0, 1.4], ""optical"": {""transparent"": 1, ""refraction"": 1.5, ""birefringence"": 0.01}}"
Schertelite,(NH4)2Mg(PO3OH)2·4H2O,"{""N"": 2.0, ""H"": 18.0, ""Mg"": 1.0, ""P"": 2.0, ""O"": 12.0}",324.41,#FFFFFF,orthorhombic,"{""system"": ""orthorhombic"", ""scale"": [0.8, 1.0, 1.2], ""optical"": {""transparent"": 1, ""refraction"": 1.5, ""birefringence"": 0.01}}"
Schiavinatoite,Nb(BO4),"{""Nb"": 1.0, ""B"": 1.0, ""O"": 4.0}",167.72,#FFFFFF,tetragonal,"{""system"": ""tetragonal"", ""scale"": [1.0, 1.0, 1.4], ""optical"": {""transparent"": 1, ""refraction"": 1.5, ""birefringence"": 0.01}}"
Schieffelinite,Pb10Te6+6O20(OH)14(SO4)(H2O)5,"{""Pb"": 10.0, ""Te"": 6.0, ""O"": 43.0, ""H"": 24.0, ""S"": 1.0}",3581.85,#FFFFFF,orthorhombic,"{""system"": ""orthorhombic"", ""scale"": [0.8, 1.0, 1.2], ""optical"": {""transparent"": 1, ""refraction"": 1.5, ""birefringence"": 0.01}}"
Schindlerite,{(NH4)4Na2(H2O)10}{V10O28},"{""N"": 4.0, ""H"": 36.0, ""Na"": 2.0, ""O"": 38.0, ""V"": 10.0}",1255.71,#FFFFFF,triclinic,"{""system"": ""triclinic"", ""scale"": [0.7, 1.0, 1.3], ""optical"": {""transparent"": 1, ""refraction"": 1.5, ""birefringence"": 0.01}}"
Schlegelite,Bi7O4(MoO4)2(AsO4)3,"{""Bi"": 7.0, ""O"": 24.0, ""Mo"": 2.0, ""As"": 3.0}",2263.52,#FFFFFF,orthorhombic,"{""system"": ""orthorhombic"", ""scale"": [0.8, 1.0, 1.2], ""optical"": {""transparent"": 1, ""refraction"": 1.5, ""birefringence"": 0.01}}"
Schlossmacherite,(H3O)Al3(SO4)2(OH)6,"{""H"": 9.0, ""O"": 15.0, ""Al"": 3.0, ""S"": 2.0}",394.13,#FFFFFF,,"{""system"": """", ""scale"": [1.0, 1.0, 1.0], ""optical"": {""transparent"": 1, ""refraction"": 1.5, ""birefringence"": 0.01}}"
Schmiederite,Cu2Pb2(Se4+O3)(Se6+O4)(OH)4,"{""Cu"": 2.0, ""Pb"": 2.0, ""Se"": 2.0, ""O"": 11.0, ""H"": 4.0}",879.45,#FFFFFF,monoclinic,"{""system"": ""monoclinic"", ""scale"": [0.7, 1.0, 1.3], ""optical"": {""transparent"": 1, ""refraction"": 1.5, ""birefringence"": 0.01}}"
Schmitterite,(UO2)(Te4+O3),"{""U"": 1.0, ""O"": 5.0, ""Te"": 1.0}",445.63,#ADFF2F,orthorhombic,"{""system"": ""orthorhombic"", ""scale"": [0.8, 1.0, 1.2], ""optical"": {""transparent"": 0, ""refraction"": 0.0, ""birefringence"": 0.0}}"
Schneebergite,BiCo2(AsO4)2(OH)·H2O,"{""Bi"": 1.0, ""Co"": 2.0, ""As"": 2.0, ""O"": 10.0, ""H"": 3.0}",639.7,#FFFFFF,monoclinic,"{""system"": ""monoclinic"", ""scale"": [0.7, 1.0, 1.3], ""optical"": {""transparent"": 1, ""refraction"": 1.5, ""birefringence"": 0.01}}"
Schneiderhohnite,Fe2+Fe3+3As3+5O13,"{""Fe"": 4.0, ""As"": 5.0, ""O"": 13.0}",806.0,#8B4513,triclinic,"{""system"": ""triclinic"", ""scale"": [0.7, 1.0, 1.3], ""optical"": {""transparent"": 0, ""refraction"": 0.0, ""birefringence"": 0.0}}"
Schoderite,Al2(PO4)(VO4)·8H2O,"{""Al"": 2.0, ""P"": 1.0, ""O"": 16.0, ""V"": 1.0, ""H"": 16.0}",408.0,#FFFFFF,monoclinic,"{""system"": ""monoclinic"", ""scale"": [0.7, 1.0, 1.3], ""optical"": {""transparent"": 1, ""refraction"": 1.5, ""birefringence"": 0.01}}"
Schoepite,(UO2)4O(OH)6(H2O)6,"{""U"": 4.0, ""O"": 21.0, ""H"": 18.0}",1306.26,#ADFF2F,orthorhombic,"{""system"": ""orthorhombic"", ""scale"": [0.8, 1.0, 1.2], ""optical"": {""transparent"": 0, ""refraction"": 0.0, ""birefringence"": 0.0}}"
Schorl,NaFe2+3Al6(Si6O18)(BO3)3(OH)3(OH),"{""Na"": 1.0, ""Fe"": 3.0, ""Al"": 6.0, ""Si"": 6.0, ""O"": 31.0, ""B"": 3.0, ""H"": 4.0}",1053.42,#556B2F,hexagonal,"{""system"": ""hexagonal"", ""scale"": [1.0, 1.0, 1.6], ""optical"": {""transparent"": 0, ""refraction"": 0.0, ""birefringence"": 0.0}}"
Schorlomite,Ca3Ti2(SiFe3+2)O12,"{""Ca"": 3.0, ""Ti"": 2.0, ""Si"": 1.0, ""Fe"": 2.0, ""O"": 12.0}",547.77,#556B2F,cubic,"{""system"": ""cubic"", ""scale"": [1.0, 1.0, 1.0], ""optical"": {""transparent"": 0, ""refraction"": 0.0, ""birefringence"": 0.0}}"
Schreyerite,V3+2Ti4+3O9,"{""V"": 2.0, ""Ti"": 3.0, ""O"": 9.0}",389.49,#FFFFFF,monoclinic,"{""system"": ""monoclinic"", ""scale"": [0.7, 1.0, 1.3], ""optical"": {""transparent"": 1, ""refraction"": 1.5, ""birefringence"": 0.01}}"
Schrockingerite,NaCa3(UO2)(SO4)(CO3)3F·10H2O,"{""Na"": 1.0, ""Ca"": 3.0, ""U"": 1.0, ""O"": 25.0, ""S"": 1.0, ""C"": 3.0, ""F"": 1.0, ""H"": 20.0}",888.51,#FFFFFF,triclinic,"{""system"": ""triclinic"", ""scale"": [0.7, 1.0, 1.3], ""optical"": {""transparent"": 1, ""refraction"": 1.5, ""birefringence"": 0.01}}"
Schubnelite,Fe3+(V5+O4)·H2O,"{""Fe"": 1.0, ""V"": 1.0, ""O"": 5.0, ""H"": 2.0}",188.81,#556B2F,triclinic,"{""system"": ""triclinic"", ""scale"": [0.7, 1.0, 1.3], ""optical"": {""transparent"": 0, ""refraction"": 0.0, ""birefringence"": 0.0}}"
Schuetteite,Hg3O2(SO4),"{""Hg"": 3.0, ""O"": 6.0, ""S"": 1.0}",729.83,#FFFF00,hexagonal,"{""system"": ""hexagonal"", ""scale"": [1.0, 1.0, 1.6], ""optical"": {""transparent"": 0, ""refraction"": 0.0, ""birefringence"": 0.0}}"
Schullerite,Ba2Ti2Na2Mg2(Si2O7)2O2F2,"{""Ba"": 2.0, ""Ti"": 2.0, ""Na"": 2.0, ""Mg"": 2.0, ""Si"": 4.0, ""O"": 16.0, ""F"": 2.0}",871.36,#FFFFFF,triclinic,"{""system"": ""triclinic"", ""scale"": [0.7, 1.0, 1.3], ""optical"": {""transparent"": 1, ""refraction"": 1.5, ""birefringence"": 0.01}}"
Schultenite,Pb(AsO3OH),"{""Pb"": 1.0, ""As"": 1.0, ""O"": 4.0, ""H"": 1.0}",347.13,#FFFFFF,monoclinic,"{""system"": ""monoclinic"", ""scale"": [0.7, 1.0, 1.3], ""optical"": {""transparent"": 1, ""refraction"": 1.5, ""birefringence"": 0.01}}"
Schumacherite,Bi3O(VO4)2(OH),"{""Bi"": 3.0, ""O"": 10.0, ""V"": 2.0, ""H"": 1.0}",889.83,#FFFFFF,triclinic,"{""system"": ""triclinic"", ""scale"": [0.7, 1.0, 1.3], ""optical"": {""transparent"": 1, ""refraction"": 1.5, ""birefringence"": 0.01}}"
Schwartzembergite,Pb2+5H2I3+O6Cl3,"{""Pb"": 5.0, ""H"": 2.0, ""I"": 1.0, ""O"": 6.0, ""Cl"": 3.0}",1367.27,#FFFFFF,tetragonal,"{""system"": ""tetragonal"", ""scale"": [1.0, 1.0, 1.4], ""optical"": {""transparent"": 1, ""refraction"": 1.5, ""birefringence"": 0.01}}"
Scolecite,Ca(Si3Al2)O10·3H2O,"{""Ca"": 1.0, ""Si"": 3.0, ""Al"": 2.0, ""O"": 13.0, ""H"": 6.0}",392.36,#FFFFFF,monoclinic,"{""system"": ""monoclinic"", ""scale"": [0.7, 1.0, 1.3], ""optical"": {""transparent"": 1, ""refraction"": 1.5, ""birefringence"": 0.01}}"
Scorodite,Fe3+(AsO4)·2H2O,"{""Fe"": 1.0, ""As"": 1.0, ""O"": 6.0, ""H"": 4.0}",230.8,#556B2F,orthorhombic,"{""system"": ""orthorhombic"", ""scale"": [0.8, 1.0, 1.2], ""optical"": {""transparent"": 0, ""refraction"": 0.0, ""birefringence"": 0.0}}"
Scorzalite,Fe2+Al2(PO4)2(OH)2,"{""Fe"": 1.0, ""Al"": 2.0, ""P"": 2.0, ""O"": 10.0, ""H"": 2.0}",333.77,#556B2F,monoclinic,"{""system"": ""monoclinic"", ""scale"": [0.7, 1.0, 1.3], ""optical"": {""transparent"": 0, ""refraction"": 0.0, ""birefringence"": 0.0}}"
Scotlandite,Pb(S4+O3),"{""Pb"": 1.0, ""S"": 1.0, ""O"": 3.0}",287.26,#FFFF00,monoclinic,"{""system"": ""monoclinic"", ""scale"": [0.7, 1.0, 1.3], ""optical"": {""transparent"": 0, ""refraction"": 0.0, ""birefringence"": 0.0}}"
Scottyite,BaCu2Si2O7,"{""Ba"": 1.0, ""Cu"": 2.0, ""Si"": 2.0, ""O"": 7.0}",432.61,#FFFFFF,orthorhombic,"{""system"": ""orthorhombic"", ""scale"": [0.8, 1.0, 1.2], ""optical"": {""transparent"": 1, ""refraction"": 1.5, ""birefringence"": 0.01}}"
Scrutinyite,PbO2,"{""Pb"": 1.0, ""O"": 2.0}",239.2,#FFFFFF,orthorhombic,"{""system"": ""orthorhombic"", ""scale"": [0.8, 1.0, 1.2], ""optical"": {""transparent"": 1, ""refraction"": 1.5, ""birefringence"": 0.01}}"
Seaborgite,LiK2Na6(UO2)(SO4)5(SO3OH)(H2O),"{""Li"": 1.0, ""K"": 2.0, ""Na"": 6.0, ""U"": 1.0, ""O"": 27.0, ""S"": 6.0, ""H"": 3.0}",1088.49,#FFFFFF,triclinic,"{""system"": ""triclinic"", ""scale"": [0.7, 1.0, 1.3], ""optical"": {""transparent"": 1, ""refraction"": 1.5, ""birefringence"": 0.01}}"
Searlesite,NaBSi2O5(OH)2,"{""Na"": 1.0, ""B"": 1.0, ""Si"": 2.0, ""O"": 7.0, ""H"": 2.0}",204.0,#FFFFFF,monoclinic,"{""system"": ""monoclinic"", ""scale"": [0.7, 1.0, 1.3], ""optical"": {""transparent"": 1, ""refraction"": 1.5, ""birefringence"": 0.01}}"
Sederholmite,NiSe,"{""Ni"": 1.0, ""Se"": 1.0}",137.65,#7FFF00,hexagonal,"{""system"": ""hexagonal"", ""scale"": [1.0, 1.0, 1.6], ""optical"": {""transparent"": 0, ""refraction"": 0.0, ""birefringence"": 0.0}}"
Sedovite,U4+(MoO4)2,"{""U"": 1.0, ""Mo"": 2.0, ""O"": 8.0}",557.93,#ADFF2F,orthorhombic,"{""system"": ""orthorhombic"", ""scale"": [0.8, 1.0, 1.2], ""optical"": {""transparent"": 0, ""refraction"": 0.0, ""birefringence"": 0.0}}"
Seeligerite,Pb3(IO4)Cl3,"{""Pb"": 3.0, ""I"": 1.0, ""O"": 4.0, ""Cl"": 3.0}",918.85,#FFFFFF,orthorhombic,"{""system"": ""orthorhombic"", ""scale"": [0.8, 1.0, 1.2], ""optical"": {""transparent"": 1, ""refraction"": 1.5, ""birefringence"": 0.01}}"
Segelerite,CaMgFe3+(PO4)2(OH)·4H2O,"{""Ca"": 1.0, ""Mg"": 1.0, ""Fe"": 1.0, ""P"": 2.0, ""O"": 13.0, ""H"": 9.0}",399.25,#556B2F,orthorhombic,"{""system"": ""orthorhombic"", ""scale"": [0.8, 1.0, 1.2], ""optical"": {""transparent"": 0, ""refraction"": 0.0, ""birefringence"": 0.0}}"
Segerstromite,Ca3(As5+O4)2[As3+(OH)3]2,"{""Ca"": 3.0, ""As"": 4.0, ""O"": 14.0, ""H"": 6.0}",649.97,#FFFFFF,cubic,"{""system"": ""cubic"", ""scale"": [1.0, 1.0, 1.0], ""optical"": {""transparent"": 1, ""refraction"": 1.5, ""birefringence"": 0.0}}"
Segnitite,PbFe3+3(AsO4)(AsO3OH)(OH)6,"{""Pb"": 1.0, ""Fe"": 3.0, ""As"": 2.0, ""O"": 14.0, ""H"": 7.0}",755.65,#556B2F,,"{""system"": """", ""scale"": [1.0, 1.0, 1.0], ""optical"": {""transparent"": 0, ""refraction"": 0.0, ""birefringence"": 0.0}}"