name,formula,elements,density,color,crystal,pm_ids,gacha_weight
Dundasite,PbAl2(CO3)2(OH)4·H2O,"{""Pb"": 1.0, ""Al"": 2.0, ""C"": 2.0, ""O"": 11.0, ""H"": 6.0}",467.223,#FFFFFF,orthorhombic,{47},1.5015e-07
Durangite,NaAl(AsO4)F,"{""Na"": 1.0, ""Al"": 1.0, ""As"": 1.0, ""O"": 4.0, ""F"": 1.0}",207.888,#FFFFFF,monoclinic,"{20,34,45}",1.3177e-08
Duranusite,As4S,"{""As"": 4.0, ""S"": 1.0}",331.748,#FFD700,orthorhombic,{33},2.51e-10
Dusmatovite,KK2Mn2(Zn2LiSi12)O30,"{""K"": 3.0, ""Mn"": 2.0, ""Zn"": 2.0, ""Li"": 1.0, ""Si"": 12.0, ""O"": 30.0}",1181.86,#FFFFFF,hexagonal,{35},6.89e-10
Dussertite,BaFe3+3(AsO4)(AsO3OH)(OH)6,"{""Ba"": 1.0, ""Fe"": 3.0, ""As"": 2.0, ""O"": 14.0, ""H"": 7.0}",685.751,#556B2F,hexagonal,"{34,47,48}",3.08726e-07
Dutkevichite-(Ce),NaZnBa2Ce2Ti2Si8O26F·H2O,"{""Na"": 1.0, ""Zn"": 1.0, ""Ba"": 2.0, ""Ce"": 2.0, ""Ti"": 2.0, ""Si"": 8.0, ""O"": 27.0, ""F"": 1.0, ""H"": 2.0}",1416.671,#FFFFFF,orthorhombic,{35},6.89e-10
Duttonite,V4+O(OH)2,"{""V"": 1.0, ""O"": 3.0, ""H"": 2.0}",100.955,#FFFFFF,monoclinic,{47},1.5015e-07
Dwornikite,Ni(SO4)·H2O,"{""Ni"": 1.0, ""S"": 1.0, ""O"": 5.0, ""H"": 2.0}",172.764,#FFFFFF,monoclinic,{47},3.003e-09
Dymkovite,Ni(UO2)2(As3+O3)2·7H2O,"{""Ni"": 1.0, ""U"": 2.0, ""O"": 17.0, ""As"": 2.0, ""H"": 14.0}",970.692,#FFFFFF,monoclinic,{47},1.5015e-07
Dypingite,Mg5(CO3)4(OH)2·5H2O,"{""Mg"": 5.0, ""C"": 4.0, ""O"": 19.0, ""H"": 12.0}",485.646,#FFFFFF,unknown,"{13,47,55}",3.37283e-07
Dzhalindite,In(OH)3,"{""In"": 1.0, ""O"": 3.0, ""H"": 3.0}",165.841,#FFFFFF,cubic,{47},1.5015e-07
Dzharkenite,FeSe2,"{""Fe"": 1.0, ""Se"": 2.0}",213.787,#8B4513,cubic,{33},1.2547e-08
Dzhuluite,Ca3(SbSn)(Fe3+O4)3,"{""Ca"": 3.0, ""Sb"": 1.0, ""Sn"": 1.0, ""Fe"": 3.0, ""O"": 12.0}",720.227,#556B2F,cubic,{31},2.809e-08
Dzierzanowskite,CaCu2S2,"{""Ca"": 1.0, ""Cu"": 2.0, ""S"": 2.0}",231.29,#A9A9A9,hexagonal,{51},1.563e-09
Eakerite,Ca2Sn4+Al2Si6O18(OH)2·2H2O,"{""Ca"": 2.0, ""Sn"": 1.0, ""Al"": 2.0, ""Si"": 6.0, ""O"": 22.0, ""H"": 6.0}",779.366,#FFFFFF,monoclinic,{22},4.0486e-08
Earlandite,Ca3(C6H5O7)2·4H2O,"{""Ca"": 3.0, ""C"": 12.0, ""H"": 18.0, ""O"": 18.0}",570.492,#FFFFFF,triclinic,"{17,49}",3.25949e-07
Earlshannonite,Mn2+Fe3+2(PO4)2(OH)2·4H2O,"{""Mn"": 1.0, ""Fe"": 2.0, ""P"": 2.0, ""O"": 14.0, ""H"": 10.0}",462.642,#556B2F,monoclinic,"{34,47}",8.394e-09
Eastonite,KAlMg2(Si2Al2)O10(OH)2,"{""K"": 1.0, ""Al"": 3.0, ""Mg"": 2.0, ""Si"": 2.0, ""O"": 12.0, ""H"": 2.0}",418.828,#FFFFFF,monoclinic,"{31,35,36,40}",1.2324802e-05
Ebnerite,(NH4)Zn(PO4),"{""N"": 1.0, ""H"": 4.0, ""Zn"": 1.0, ""P"": 1.0, ""O"": 4.0}",178.389,#FFFFFF,hexagonal,{},1e-07
Ecandrewsite,ZnTiO3,"{""Zn"": 1.0, ""Ti"": 1.0, ""O"": 3.0}",161.244,#FFFFFF,hexagonal,{32},7.282e-09
Ecdemite,Pb6As3+2O7Cl4,"{""Pb"": 6.0, ""As"": 2.0, ""O"": 7.0, ""Cl"": 4.0}",1646.837,#FFFFFF,tetragonal,"{32,47,56}",2.44352e-07
Eckerite,Ag2CuAsS3,"{""Ag"": 2.0, ""Cu"": 1.0, ""As"": 1.0, ""S"": 3.0}",450.388,#FFD700,monoclinic,{33},2.51e-10
Eckermannite,NaNa2(Mg4Al)Si8O22(OH)2,"{""Na"": 3.0, ""Mg"": 4.0, ""Al"": 1.0, ""Si"": 8.0, ""O"": 24.0, ""H"": 2.0}",803.844,#FFFFFF,monoclinic,"{17,35,36}",3.17482e-07
Ecrinsite,AgTl3Pb4As11Sb9S36,"{""Ag"": 1.0, ""Tl"": 3.0, ""Pb"": 4.0, ""As"": 11.0, ""Sb"": 9.0, ""S"": 36.0}",4623.952,#708090,triclinic,{33},2.51e-10
Eddavidite,Cu12Pb2O15Br2,"{""Cu"": 12.0, ""Pb"": 2.0, ""O"": 15.0, ""Br"": 2.0}",1576.745,#FFFFFF,cubic,{47},1.5015e-07
Edenharterite,TlPbAs3S6,"{""Tl"": 1.0, ""Pb"": 1.0, ""As"": 3.0, ""S"": 6.0}",828.706,#708090,orthorhombic,{33},2.51e-10
Edenite,NaCa2Mg5(Si7Al)O22(OH)2,"{""Na"": 1.0, ""Ca"": 2.0, ""Mg"": 5.0, ""Si"": 7.0, ""Al"": 1.0, ""O"": 24.0, ""H"": 2.0}",834.24,#FFFFFF,monoclinic,"{8,10,12,16,19,20,26,31,34,35,40}",6.6864606e-05
Edgarbaileyite,Hg1+6Si2O7,"{""Hg"": 6.0, ""Si"": 2.0, ""O"": 7.0}",1371.703,#FFFFFF,monoclinic,"{33,47}",1.62697e-07
Edgarite,FeNb3S6,"{""Fe"": 1.0, ""Nb"": 3.0, ""S"": 6.0}",526.923,#DAA520,hexagonal,"{33,35}",5.26e-10
Edgrewite,Ca9(SiO4)4F2,"{""Ca"": 9.0, ""Si"": 4.0, ""O"": 16.0, ""F"": 2.0}",767.022,#FFFFFF,monoclinic,"{9,51}",7.843e-09
Edingtonite,Ba(Si3Al2)O10·4H2O,"{""Ba"": 1.0, ""Si"": 3.0, ""Al"": 2.0, ""O"": 14.0, ""H"": 8.0}",507.599,#FFFFFF,orthorhombic,"{32,35,36}",7.241e-08
Edoylerite,Hg2+3(Cr6+O4)S2,"{""Hg"": 3.0, ""Cr"": 1.0, ""O"": 4.0, ""S"": 2.0}",781.882,#FFFFFF,monoclinic,"{13,47}",5.988e-09
Edscottite,Fe5C2,"{""Fe"": 5.0, ""C"": 2.0}",303.247,#8B4513,monoclinic,{5},1.06383e-07
Edtollite,K2NaCu5Fe3+O2(AsO4)4,"{""K"": 2.0, ""Na"": 1.0, ""Cu"": 5.0, ""Fe"": 1.0, ""O"": 18.0, ""As"": 4.0}",1062.431,#556B2F,triclinic,{45},2.3585e-08
Edwardsite,Cu3Cd2(SO4)2(OH)6·4H2O,"{""Cu"": 3.0, ""Cd"": 2.0, ""S"": 2.0, ""O"": 18.0, ""H"": 14.0}",781.672,#FFFFFF,monoclinic,{47},3.003e-09
Edwindavisite,Cu(C2O4)(NH3),"{""Cu"": 1.0, ""C"": 2.0, ""O"": 4.0, ""N"": 1.0, ""H"": 3.0}",168.595,#FFFFFF,orthorhombic,{},1e-06
Effenbergerite,BaCuSi4O10,"{""Ba"": 1.0, ""Cu"": 1.0, ""Si"": 4.0, ""O"": 10.0}",473.206,#FFFFFF,tetragonal,{32},2.4272e-08
Efremovite,(NH4)2Mg2(SO4)3,"{""N"": 2.0, ""H"": 8.0, ""Mg"": 2.0, ""S"": 3.0, ""O"": 12.0}",372.856,#FFFFFF,cubic,"{45,50,54}",2.059e-09
Eglestonite,([Hg1+]2)3OCl3(OH),"{""Hg"": 6.0, ""O"": 2.0, ""Cl"": 3.0, ""H"": 1.0}",1342.896,#FFFFFF,cubic,{47},1.5015e-07
Ehrigite,Bi8Te3,"{""Bi"": 8.0, ""Te"": 3.0}",2054.64,#D2B48C,hexagonal,{},1e-06
Ehrleite,Ca2ZnBe(PO4)2(PO3OH)·4H2O,"{""Ca"": 2.0, ""Zn"": 1.0, ""Be"": 1.0, ""P"": 3.0, ""O"": 16.0, ""H"": 9.0}",512.5262,#FFFFFF,triclinic,{47},1.5015e-08
Eifelite,KNa2(MgNa)(Mg3Si12)O30,"{""K"": 1.0, ""Na"": 3.0, ""Mg"": 4.0, ""Si"": 12.0, ""O"": 30.0}",1022.278,#FFFFFF,hexagonal,"{35,40}",1.2243612e-05
Eirikite,KNa6Be2(Si15Al3)O39F2,"{""K"": 1.0, ""Na"": 6.0, ""Be"": 2.0, ""Si"": 15.0, ""Al"": 3.0, ""O"": 39.0, ""F"": 2.0}",1359.2404,#FFFFFF,hexagonal,{35},6.89e-10
Eitelite,Na2Mg(CO3)2,"{""Na"": 2.0, ""Mg"": 1.0, ""C"": 2.0, ""O"": 6.0}",190.301,#FFFFFF,hexagonal,"{24,35,36}",1.83274e-07
Ekanite,Ca2ThSi8O20,"{""Ca"": 2.0, ""Th"": 1.0, ""Si"": 8.0, ""O"": 20.0}",856.856,#FFFFFF,tetragonal,"{9,26,35}",1.32514e-07
Ekaterinite,Ca2B4O7Cl2·2H2O,"{""Ca"": 2.0, ""B"": 4.0, ""O"": 9.0, ""Cl"": 2.0, ""H"": 4.0}",342.319,#FFFFFF,hexagonal,"{23,31}",1.786884e-06
Ekebergite,ThFeNb2O8,"{""Th"": 1.0, ""Fe"": 1.0, ""Nb"": 2.0, ""O"": 8.0}",601.689,#556B2F,monoclinic,{34},1.773e-08
Elaliite,(Fe2+8Fe3+)(PO4)O8,"{""Fe"": 9.0, ""P"": 1.0, ""O"": 12.0}",725.567,#8B4513,orthorhombic,{},1e-07
Elasmochloite,Na3Cu6BiO4(SO4)5,"{""Na"": 3.0, ""Cu"": 6.0, ""Bi"": 1.0, ""O"": 24.0, ""S"": 5.0}",1203.502,#FFFFFF,monoclinic,{45},4.72e-10
Eldfellite,NaFe3+(SO4)2,"{""Na"": 1.0, ""Fe"": 1.0, ""S"": 2.0, ""O"": 8.0}",270.947,#556B2F,monoclinic,{45},4.72e-10
Eldragonite,Cu6BiSe4(Se2),"{""Cu"": 6.0, ""Bi"": 1.0, ""Se"": 6.0}",1064.082,#00BFFF,orthorhombic,{33},1.2547e-08
Eleomelanite,(K2Pb)Cu4O2(SO4)4,"{""K"": 2.0, ""Pb"": 1.0, ""Cu"": 4.0, ""O"": 18.0, ""S"": 4.0}",955.802,#FFFFFF,monoclinic,{45},4.72e-10
Elgoresyite,(Mg5Si2)O9,"{""Mg"": 5.0, ""Si"": 2.0, ""O"": 9.0}",321.686,#FFFFFF,monoclinic,{6},6.3415e-08
Eliopoulosite,V7S8,"{""V"": 7.0, ""S"": 8.0}",613.074,#A9A9A9,hexagonal,"{33,36}",9.38e-10
Elkinstantonite,Fe4(PO4)2O,"{""Fe"": 4.0, ""P"": 2.0, ""O"": 9.0}",429.319,#8B4513,monoclinic,{},1e-07
Ellinaite,CaCr2O4,"{""Ca"": 1.0, ""Cr"": 2.0, ""O"": 4.0}",208.066,#228B22,orthorhombic,{31},2.809e-08
Ellingsenite,Na5Ca6Si18O38(OH)13·6H2O,"{""Na"": 5.0, ""Ca"": 6.0, ""Si"": 18.0, ""O"": 57.0, ""H"": 25.0}",1798.091,#FFFFFF,triclinic,"{35,47}",2.13102e-07
Elliottite,NaMgAl3(PO4)2F6·9H2O,"{""Na"": 1.0, ""Mg"": 1.0, ""Al"": 3.0, ""P"": 2.0, ""O"": 17.0, ""F"": 6.0, ""H"": 18.0}",594.304,#FFFFFF,monoclinic,{},5e-08
Ellisite,Tl3AsS3,"{""Tl"": 3.0, ""As"": 1.0, ""S"": 3.0}",784.242,#FFD700,hexagonal,{33},2.51e-10
Elpasolite,K2NaAlF6,"{""K"": 2.0, ""Na"": 1.0, ""Al"": 1.0, ""F"": 6.0}",242.156,#FFFFFF,cubic,{22},2.024e-09
Elpidite,Na2ZrSi6O15·3H2O,"{""Na"": 2.0, ""Zr"": 1.0, ""Si"": 6.0, ""O"": 18.0, ""H"": 6.0}",599.744,#FFFFFF,orthorhombic,"{34,35}",3.1505e-08
Eltyubyuite,Ca12Fe3+10Si4O32Cl6,"{""Ca"": 12.0, ""Fe"": 10.0, ""Si"": 4.0, ""O"": 32.0, ""Cl"": 6.0}",1876.394,#556B2F,cubic,"{45,51,54}",1.44445e-07
Elyite,CuPb4(SO4)O2(OH)4·H2O,"{""Cu"": 1.0, ""Pb"": 4.0, ""S"": 1.0, ""O"": 11.0, ""H"": 6.0}",1106.443,#FFFFFF,monoclinic,"{47,55,56}",5.159e-09
Embreyite,Pb5(CrO4)2(PO4)2·H2O,"{""Pb"": 5.0, ""Cr"": 2.0, ""O"": 17.0, ""P"": 2.0, ""H"": 2.0}",1475.939,#FFFFFF,monoclinic,{47},1.5015e-08
Emeleusite,Na2LiFe3+Si6O15,"{""Na"": 2.0, ""Li"": 1.0, ""Fe"": 1.0, ""Si"": 6.0, ""O"": 15.0}",517.26,#556B2F,orthorhombic,{19},3.4965035e-05
Emmerichite,Ba2Ti2Na3Fe3+(Si2O7)2O2F2,"{""Ba"": 2.0, ""Ti"": 2.0, ""Na"": 3.0, ""Fe"": 1.0, ""Si"": 4.0, ""O"": 16.0, ""F"": 2.0}",901.529,#556B2F,monoclinic,{35},6.89e-10
Emmonsite,Fe3+2(Te4+O3)3·2H2O,"{""Fe"": 2.0, ""Te"": 3.0, ""O"": 11.0, ""H"": 4.0}",674.511,#556B2F,triclinic,{47},1.5015e-07
Emplectite,CuBiS2,"{""Cu"": 1.0, ""Bi"": 1.0, ""S"": 2.0}",336.646,#A9A9A9,orthorhombic,{33},2.51e-10
Empressite,AgTe,"{""Ag"": 1.0, ""Te"": 1.0}",235.47,#C0C0C0,orthorhombic,{33},1.2547e-08
Enargite,Cu3AsS4,"{""Cu"": 3.0, ""As"": 1.0, ""S"": 4.0}",393.8,#FFD700,orthorhombic,{33},2.51e-10
Engelhauptite,KCu3(V2O7)(OH)2Cl,"{""K"": 1.0, ""Cu"": 3.0, ""V"": 2.0, ""O"": 9.0, ""H"": 2.0, ""Cl"": 1.0}",513.077,#FFFFFF,hexagonal,{47},1.5015e-07
Englishite,K3Na2Ca10Al15(OH)7(PO4)21·26H2O,"{""K"": 3.0, ""Na"": 2.0, ""Ca"": 10.0, ""Al"": 15.0, ""O"": 117.0, ""H"": 59.0, ""P"": 21.0}",3550.593,#FFFFFF,monoclinic,"{21,34,47}",2.9446e-08
Enneasartorite,Tl6Pb32As70S140,"{""Tl"": 6.0, ""Pb"": 32.0, ""As"": 70.0, ""S"": 140.0}",17589.62,#708090,monoclinic,{33},2.51e-10
Enricofrancoite,KNaCaSi4O10,"{""K"": 1.0, ""Na"": 1.0, ""Ca"": 1.0, ""Si"": 4.0, ""O"": 10.0}",374.496,#FFFFFF,triclinic,{},1.3e-06
Enstatite,Mg2Si2O6,"{""Mg"": 2.0, ""Si"": 2.0, ""O"": 6.0}",200.774,#FFFFFF,orthorhombic,"{1,4,5,6,7,12,36,38,39,40}",1.3852147e-05
Eosphorite,Mn2+Al(PO4)(OH)2·H2O,"{""Mn"": 1.0, ""Al"": 1.0, ""P"": 1.0, ""O"": 7.0, ""H"": 4.0}",228.919,#FFFFFF,orthorhombic,"{34,47}",8.394e-09
Ephesite,NaLiAl2(Si2Al2)O10(OH)2,"{""Na"": 1.0, ""Li"": 1.0, ""Al"": 4.0, ""Si"": 2.0, ""O"": 12.0, ""H"": 2.0}",388.032,#FFFFFF,triclinic,"{22,23,40}",1.1203669e-05
Epididymite,Na2Be2Si6O15·H2O,"{""Na"": 2.0, ""Be"": 2.0, ""Si"": 6.0, ""O"": 16.0, ""H"": 2.0}",490.5144,#FFFFFF,orthorhombic,"{19,35}",3.4978809e-05
Epidote,Ca2(Al2Fe3+)[Si2O7][SiO4]O(OH),"{""Ca"": 2.0, ""Al"": 2.0, ""Fe"": 1.0, ""Si"": 3.0, ""O"": 13.0, ""H"": 1.0}",483.215,#556B2F,monoclinic,"{16,22,31,39,40,43}",1.4101639e-05
Epidote-(Sr),CaSr(Al2Fe3+)[Si2O7][SiO4]O(OH),"{""Ca"": 1.0, ""Sr"": 1.0, ""Al"": 2.0, ""Fe"": 1.0, ""Si"": 3.0, ""O"": 13.0, ""H"": 1.0}",530.757,#556B2F,monoclinic,"{31,32,39,40}",9.599608e-06
Epiebnerite,(NH4)Zn(PO4),"{""N"": 1.0, ""H"": 4.0, ""Zn"": 1.0, ""P"": 1.0, ""O"": 4.0}",178.389,#FFFFFF,monoclinic,{},1e-07
Epifanovite,NaCaCu5(PO4)4[AsO2(OH)2]·7H2O,"{""Na"": 1.0, ""Ca"": 1.0, ""Cu"": 5.0, ""P"": 4.0, ""O"": 27.0, ""As"": 1.0, ""H"": 16.0}",1027.717,#FFFFFF,monoclinic,{47},1.5015e-08
Epistilbite,Ca3[Si18Al6O48]·16H2O,"{""Ca"": 3.0, ""Si"": 18.0, ""Al"": 6.0, ""O"": 64.0, ""H"": 32.0}",1843.848,#FFFFFF,triclinic,"{10,16,22}",3.30753e-07
Epsomite,Mg(SO4)·7H2O,"{""Mg"": 1.0, ""S"": 1.0, ""O"": 11.0, ""H"": 14.0}",246.466,#FFFFFF,orthorhombic,"{6,21,25,45,49,50,54,55}",9.874e-09
Erazoite,Cu4SnS6,"{""Cu"": 4.0, ""Sn"": 1.0, ""S"": 6.0}",565.254,#A9A9A9,hexagonal,{33},2.51e-10
Ercitite,NaMn3+(PO4)(OH)·2H2O,"{""Na"": 1.0, ""Mn"": 1.0, ""P"": 1.0, ""O"": 7.0, ""H"": 5.0}",225.935,#FFFFFF,orthorhombic,"{34,47}",8.394e-09
Erdite,NaFeS2·2H2O,"{""Na"": 1.0, ""Fe"": 1.0, ""S"": 2.0, ""H"": 4.0, ""O"": 2.0}",178.985,#556B2F,monoclinic,"{19,47}",7.02304e-07
Ericaite,Fe2+3B7O13Cl,"{""Fe"": 3.0, ""B"": 7.0, ""O"": 13.0, ""Cl"": 1.0}",486.642,#556B2F,orthorhombic,{25},4.7619e-08
Ericlaxmanite,Cu4O(AsO4)2,"{""Cu"": 4.0, ""O"": 9.0, ""As"": 2.0}",548.019,#00BFFF,triclinic,{45},2.3585e-08
Ericssonite,BaMn2+2Fe3+(Si2O7)O(OH),"{""Ba"": 1.0, ""Mn"": 2.0, ""Fe"": 1.0, ""Si"": 2.0, ""O"": 9.0, ""H"": 1.0}",504.22,#556B2F,orthorhombic,{32},1.214e-09
Eringaite,Ca3Sc2(SiO4)3,"{""Ca"": 3.0, ""Sc"": 2.0, ""Si"": 3.0, ""O"": 12.0}",486.389,#FFFFFF,cubic,{3},2.08333e-07
Eriochalcite,CuCl2·2H2O,"{""Cu"": 1.0, ""Cl"": 2.0, ""H"": 4.0, ""O"": 2.0}",170.476,#FFFFFF,orthorhombic,"{45,47,55}",2.11614e-07
Erionite-Ca,Ca5[Si26Al10O72]·30H2O,"{""Ca"": 5.0, ""Si"": 26.0, ""Al"": 10.0, ""O"": 102.0, ""H"": 60.0}",2892.798,#FFFFFF,hexagonal,"{10,14,16,17,24,25}",9.83719e-07
Erionite-K,K10[Si26Al10O72]·30H2O,"{""K"": 10.0, ""Si"": 26.0, ""Al"": 10.0, ""O"": 102.0, ""H"": 60.0}",3083.388,#FFFFFF,hexagonal,"{10,14,16,17,24,25}",1.05939e-06
Erionite-Na,Na10[Si26Al10O72]·30H2O,"{""Na"": 10.0, ""Si"": 26.0, ""Al"": 10.0, ""O"": 102.0, ""H"": 60.0}",2922.308,#FFFFFF,hexagonal,"{10,14,16,17,24,25}",1.891767e-06
Erlianite,Fe2+4Fe3+2Si6O15(OH)8,"{""Fe"": 6.0, ""Si"": 6.0, ""O"": 23.0, ""H"": 8.0}",879.621,#556B2F,orthorhombic,{40},1.7868339e-05
Erlichmanite,OsS2,"{""Os"": 1.0, ""S"": 2.0}",254.35,#A9A9A9,cubic,"{6,36,37,38}",4.996e-09
Ermakovite,(NH4)(As2O3)2Br,"{""N"": 1.0, ""H"": 4.0, ""As"": 4.0, ""O"": 6.0, ""Br"": 1.0}",493.625,#FFFFFF,hexagonal,{51},7.8125e-08
Ermeloite,Al(PO4)·H2O,"{""Al"": 1.0, ""P"": 1.0, ""O"": 5.0, ""H"": 2.0}",139.967,#FFFFFF,monoclinic,{47},1.5015e-08
Ernienickelite,NiMn4+3O7·3H2O,"{""Ni"": 1.0, ""Mn"": 3.0, ""O"": 10.0, ""H"": 6.0}",389.545,#FFFFFF,hexagonal,{47},7.508e-09
Erniggliite,Tl2SnAs2S6,"{""Tl"": 2.0, ""Sn"": 1.0, ""As"": 2.0, ""S"": 6.0}",869.674,#FFD700,hexagonal,{33},2.51e-10
Ernstburkeite,Mg(CH3SO3)2·12H2O,"{""Mg"": 1.0, ""C"": 2.0, ""H"": 30.0, ""S"": 2.0, ""O"": 18.0}",430.669,#FFFFFF,hexagonal,{18},5e-08
Erssonite,CaMg7Fe3+2(OH)18(SO4)2·12H2O,"{""Ca"": 1.0, ""Mg"": 7.0, ""Fe"": 2.0, ""O"": 38.0, ""H"": 42.0, ""S"": 2.0}",1036.321,#556B2F,hexagonal,{47},3.003e-09
Ertixiite,Na2Si4O9,"{""Na"": 2.0, ""Si"": 4.0, ""O"": 9.0}",302.311,#FFFFFF,cubic,{34},4.4326e-08
Ertlite,NaAl3Al6(Si4B2O18)(BO3)3(OH)3O,"{""Na"": 1.0, ""Al"": 9.0, ""Si"": 4.0, ""B"": 5.0, ""O"": 31.0, ""H"": 3.0}",931.211,#FFFFFF,hexagonal,{},1e-06
Erythrite,Co3(AsO4)2·8H2O,"{""Co"": 3.0, ""As"": 2.0, ""O"": 16.0, ""H"": 16.0}",598.755,#FFFFFF,monoclinic,{47},1.5015e-07
Erythrosiderite,K2Fe3+Cl5·H2O,"{""K"": 2.0, ""Fe"": 1.0, ""Cl"": 5.0, ""H"": 2.0, ""O"": 1.0}",329.306,#556B2F,orthorhombic,"{25,45}",7.1204e-08
Erzwiesite,Ag8Pb12Bi16S40,"{""Ag"": 8.0, ""Pb"": 12.0, ""Bi"": 16.0, ""S"": 40.0}",7975.44,#708090,orthorhombic,{33},2.51e-10
Escheite,Ca2NaMnTi5[Si12O34]O2(OH)3·12H2O,"{""Ca"": 2.0, ""Na"": 1.0, ""Mn"": 1.0, ""Ti"": 5.0, ""Si"": 12.0, ""O"": 51.0, ""H"": 27.0}",1577.604,#FFFFFF,orthorhombic,{35},6.89e-10
Esdanaite-(Ce),NaMnCe(PO4)2·4H2O,"{""Na"": 1.0, ""Mn"": 1.0, ""Ce"": 1.0, ""P"": 2.0, ""O"": 12.0, ""H"": 8.0}",480.048,#FFFFFF,orthorhombic,{35},6.89e-10
Eskebornite,CuFeSe2,"{""Cu"": 1.0, ""Fe"": 1.0, ""Se"": 2.0}",277.333,#00BFFF,tetragonal,{33},1.2547e-08
Eskimoite,Ag7Pb10Bi15S36,"{""Ag"": 7.0, ""Pb"": 10.0, ""Bi"": 15.0, ""S"": 36.0}",7115.95,#708090,monoclinic,{33},2.51e-10
Eskolaite,Cr2O3,"{""Cr"": 2.0, ""O"": 3.0}",151.989,#228B22,hexagonal,"{1,5,6,26,31,36,40}",1.0116552e-05
Espadaite,Na4Ca3Mg2[AsO3(OH)]2[AsO2(OH)2]10(H2O)6·H2O,"{""Na"": 4.0, ""Ca"": 3.0, ""Mg"": 2.0, ""As"": 12.0, ""O"": 55.0, ""H"": 36.0}",2076.101,#FFFFFF,orthorhombic,{47},1.5015e-07
Esperanzaite,NaCa2Al2(AsO4)2F4(OH)·2H2O,"{""Na"": 1.0, ""Ca"": 2.0, ""Al"": 2.0, ""As"": 2.0, ""O"": 11.0, ""F"": 4.0, ""H"": 5.0}",563.975,#FFFFFF,monoclinic,{47},7.508e-09
Esperite,PbCa2(ZnSiO4)3,"{""Pb"": 1.0, ""Ca"": 2.0, ""Zn"": 3.0, ""Si"": 3.0, ""O"": 12.0}",759.739,#FFFFFF,monoclinic,{32},2.4272e-08
Esquireite,BaSi6O13·7H2O,"{""Ba"": 1.0, ""Si"": 6.0, ""O"": 20.0, ""H"": 14.0}",639.932,#FFFFFF,monoclinic,{47},1.5015e-07
Esseneite,CaFe3+AlSiO6,"{""Ca"": 1.0, ""Fe"": 1.0, ""Al"": 1.0, ""Si"": 1.0, ""O"": 6.0}",246.984,#556B2F,monoclinic,"{45,50,51,54}",2.35397e-07
Ettringite,Ca6Al2(SO4)3(OH)12·27H2O,"{""Ca"": 6.0, ""Al"": 2.0, ""S"": 3.0, ""O"": 51.0, ""H"": 66.0}",1273.089,#FFFFFF,hexagonal,"{31,47,51}",5.127e-09
Eucairite,CuAgSe,"{""Cu"": 1.0, ""Ag"": 1.0, ""Se"": 1.0}",250.387,#00BFFF,orthorhombic,{33},1.2547e-08
Euchlorine,KNaCu3O(SO4)3,"{""K"": 1.0, ""Na"": 1.0, ""Cu"": 3.0, ""O"": 13.0, ""S"": 3.0}",556.893,#FFFFFF,monoclinic,{45},4.72e-10
Euchroite,Cu2(AsO4)(OH)·3H2O,"{""Cu"": 2.0, ""As"": 1.0, ""O"": 8.0, ""H"": 7.0}",337.062,#FFFFFF,orthorhombic,{47},1.5015e-07
Euclase,BeAlSiO4(OH),"{""Be"": 1.0, ""Al"": 1.0, ""Si"": 1.0, ""O"": 5.0, ""H"": 1.0}",145.0822,#FFFFFF,monoclinic,"{34,47}",1.67881e-07
Eucryptite,LiAlSiO4,"{""Li"": 1.0, ""Al"": 1.0, ""Si"": 1.0, ""O"": 4.0}",126.003,#FFFFFF,hexagonal,{34},1.773e-08
Eudidymite,Na2Be2Si6O15·H2O,"{""Na"": 2.0, ""Be"": 2.0, ""Si"": 6.0, ""O"": 16.0, ""H"": 2.0}",490.5144,#FFFFFF,monoclinic,"{19,35}",3.4978809e-05
Eugenite,Ag11Hg2,"{""Ag"": 11.0, ""Hg"": 2.0}",1587.75,#C0C0C0,cubic,{33},1.2547e-08
Eugsterite,Na4Ca(SO4)3·2H2O,"{""Na"": 4.0, ""Ca"": 1.0, ""S"": 3.0, ""O"": 14.0, ""H"": 4.0}",456.236,#FFFFFF,unknown,{25},9.52e-10
Eulytine,Bi4(SiO4)3,"{""Bi"": 4.0, ""Si"": 3.0, ""O"": 12.0}",1112.163,#D2B48C,cubic,{33},1.2547e-08
Euxenite-(Y),Y(NbTi)O6,"{""Y"": 1.0, ""Nb"": 1.0, ""Ti"": 1.0, ""O"": 6.0}",325.673,#FFFFFF,orthorhombic,"{26,34}",1.7319e-08
Evanichite,Pb6Cr3+(Cr6+O4)2(SO4)(OH)7FCl,"{""Pb"": 6.0, ""Cr"": 3.0, ""O"": 19.0, ""S"": 1.0, ""H"": 7.0, ""F"": 1.0, ""Cl"": 1.0}",1796.733,#FFFFFF,hexagonal,{47},3.003e-09
Evansite,Al3(PO4)(OH)6·8H2O,"{""Al"": 3.0, ""P"": 1.0, ""O"": 18.0, ""H"": 22.0}",422.078,#FFFFFF,unknown,"{47,50,52}",3.2567e-08
Evdokimovite,Tl4(VO)3(SO4)5(H2O)5,"{""Tl"": 4.0, ""V"": 3.0, ""O"": 28.0, ""S"": 5.0, ""H"": 10.0}",1588.698,#FFFFFF,monoclinic,{45},4.72e-10
Eveite,Mn2+2(AsO4)(OH),"{""Mn"": 2.0, ""As"": 1.0, ""O"": 5.0, ""H"": 1.0}",265.801,#FFFFFF,orthorhombic,{32},1.214e-09
Evenkite,C23H48,"{""C"": 23.0, ""H"": 48.0}",324.637,#FFFFFF,orthorhombic,"{10,50,54}",1.72823e-07
Evseevite,Na2Mg(AsO4)F,"{""Na"": 2.0, ""Mg"": 1.0, ""As"": 1.0, ""O"": 4.0, ""F"": 1.0}",228.201,#FFFFFF,orthorhombic,{45},1.179e-09
Ewingite,Mg8Ca8(UO2)24(CO3)30O4(OH)12(H2O)138,"{""Mg"": 8.0, ""Ca"": 8.0, ""U"": 24.0, ""O"": 292.0, ""C"": 30.0, ""H"": 288.0}",11550.126,#FFFFFF,tetragonal,{47},1.5015e-07
Eyselite,Fe3+Ge4+3O7(OH),"{""Fe"": 1.0, ""Ge"": 3.0, ""O"": 8.0, ""H"": 1.0}",402.735,#556B2F,orthorhombic,{47},1.5015e-07
Ezcurrite,Na2B5O7(OH)3·2H2O,"{""Na"": 2.0, ""B"": 5.0, ""O"": 12.0, ""H"": 7.0}",299.074,#FFFFFF,triclinic,{47},1.5015e-07
Ezochiite,Cu+(Rh3+Pt4+)S4,"{""Cu"": 1.0, ""Rh"": 1.0, ""Pt"": 1.0, ""S"": 4.0}",489.776,#A9A9A9,cubic,{},2e-08
Eztlite,Pb2Fe3+3(Te4+O3)3(SO4)O2Cl,"{""Pb"": 2.0, ""Fe"": 3.0, ""Te"": 3.0, ""O"": 15.0, ""S"": 1.0, ""Cl"": 1.0}",1272.23,#556B2F,monoclinic,{47},3.003e-09
Fabianite,CaB3O5(OH),"{""Ca"": 1.0, ""B"": 3.0, ""O"": 6.0, ""H"": 1.0}",169.51,#FFFFFF,monoclinic,{47},1.5015e-07
Fabriesite,Na3Al3Si3O12·2H2O,"{""Na"": 3.0, ""Al"": 3.0, ""Si"": 3.0, ""O"": 14.0, ""H"": 4.0}",462.189,#FFFFFF,orthorhombic,{47},3.75375e-07
Fabritzite,Zn9(SO4)2(OH)12Cl2·6H2O,"{""Zn"": 9.0, ""S"": 2.0, ""O"": 26.0, ""H"": 24.0, ""Cl"": 2.0}",1163.606,#FFFFFF,hexagonal,{},2e-08
Faheyite,Be2Mn2+Fe3+2(PO4)4·6H2O,"{""Be"": 2.0, ""Mn"": 1.0, ""Fe"": 2.0, ""P"": 4.0, ""O"": 22.0, ""H"": 12.0}",672.6224,#556B2F,hexagonal,{47},7.508e-09
Fahleite,CaZn5Fe3+2(AsO4)6·14H2O,"{""Ca"": 1.0, ""Zn"": 5.0, ""Fe"": 2.0, ""As"": 6.0, ""O"": 38.0, ""H"": 28.0}",1564.386,#556B2F,unknown,{47},1.5015e-07
Fairbankite,Pb2+12(Te4+O3)11(SO4),"{""Pb"": 12.0, ""Te"": 11.0, ""O"": 37.0, ""S"": 1.0}",4514.023,#FFFFFF,triclinic,"{47,55}",3.761e-09
Fairchildite,K2Ca(CO3)2,"{""K"": 2.0, ""Ca"": 1.0, ""C"": 2.0, ""O"": 6.0}",238.29,#FFFFFF,hexagonal,"{36,53,56}",1.89764e-07
Fairfieldite,Ca2Mn2+(PO4)2·2H2O,"{""Ca"": 2.0, ""Mn"": 1.0, ""P"": 2.0, ""O"": 10.0, ""H"": 4.0}",361.064,#FFFFFF,triclinic,"{34,47}",8.394e-09