name,formula,elements,density,color,crystal
Ice,H2O,"{""H"": 2.0, ""O"": 1.0}",18.015,#FFFFFF,
Ichnusaite,Th(MoO4)2·3H2O,"{""Th"": 1.0, ""Mo"": 2.0, ""O"": 11.0, ""H"": 6.0}",605.977,#FFFFFF,monoclinic
Icosahedrite,Al63Cu24Fe13,"{""Al"": 63.0, ""Cu"": 24.0, ""Fe"": 13.0}",3950.955,#00BFFF,
Idaite,Cu3FeS4,"{""Cu"": 3.0, ""Fe"": 1.0, ""S"": 4.0}",374.723,#DAA520,tetragonal
Idrialite,C22H14,"{""C"": 22.0, ""H"": 14.0}",278.354,#FFFFFF,orthorhombic
Igelstromite,Fe3+(SbPb)O4,"{""Fe"": 1.0, ""Sb"": 1.0, ""Pb"": 1.0, ""O"": 4.0}",448.801,#556B2F,tetragonal
Iimoriite-(Y),Y2(SiO4)(CO3),"{""Y"": 2.0, ""Si"": 1.0, ""O"": 7.0, ""C"": 1.0}",329.901,#FFFFFF,triclinic
Ikaite,Ca(CO3)·6H2O,"{""Ca"": 1.0, ""C"": 1.0, ""O"": 9.0, ""H"": 12.0}",208.176,#FFFFFF,monoclinic
Ikunolite,Bi4S3,"{""Bi"": 4.0, ""S"": 3.0}",932.1,#A9A9A9,hexagonal
Ilinskite,NaCu5O2(Se4+O3)2Cl3,"{""Na"": 1.0, ""Cu"": 5.0, ""O"": 8.0, ""Se"": 2.0, ""Cl"": 3.0}",733.004,#FFFFFF,orthorhombic
Ilmenite,Fe2+Ti4+O3,"{""Fe"": 1.0, ""Ti"": 1.0, ""O"": 3.0}",151.709,#8B4513,hexagonal
Iltisite,HgAgSCl,"{""Hg"": 1.0, ""Ag"": 1.0, ""S"": 1.0, ""Cl"": 1.0}",375.97,#A9A9A9,hexagonal
Ilvaite,CaFe3+Fe2+2O(Si2O7)(OH),"{""Ca"": 1.0, ""Fe"": 3.0, ""O"": 9.0, ""Si"": 2.0, ""H"": 1.0}",408.782,#556B2F,monoclinic
Imandrite,Na12Ca3Fe3+2Si12O36,"{""Na"": 12.0, ""Ca"": 3.0, ""Fe"": 2.0, ""Si"": 12.0, ""O"": 36.0}",1420.788,#556B2F,orthorhombic
Imayoshiite,Ca3Al(CO3)[B(OH)4](OH)6·12H2O,"{""Ca"": 3.0, ""Al"": 1.0, ""C"": 1.0, ""O"": 25.0, ""B"": 1.0, ""H"": 34.0}",604.284,#FFFFFF,hexagonal
Imiterite,Ag2HgS2,"{""Ag"": 2.0, ""Hg"": 1.0, ""S"": 2.0}",480.45,#A9A9A9,monoclinic
Imogolite,Al2SiO3(OH)4,"{""Al"": 2.0, ""Si"": 1.0, ""O"": 7.0, ""H"": 4.0}",198.074,#FFFFFF,
Inaglyite,PbCu3Ir8S16,"{""Pb"": 1.0, ""Cu"": 3.0, ""Ir"": 8.0, ""S"": 16.0}",2448.558,#708090,hexagonal
Incomsartorite,Tl6Pb144As246S516,"{""Tl"": 6.0, ""Pb"": 144.0, ""As"": 246.0, ""S"": 516.0}",66036.852,#708090,monoclinic
Inderborite,CaMg[B3O3(OH)5]2(H2O)4·2H2O,"{""Ca"": 1.0, ""Mg"": 1.0, ""B"": 6.0, ""O"": 22.0, ""H"": 22.0}",503.397,#FFFFFF,monoclinic
Inderite,Mg[B3O3(OH)5](H2O)4·H2O,"{""Mg"": 1.0, ""B"": 3.0, ""O"": 13.0, ""H"": 15.0}",279.842,#FFFFFF,monoclinic
Indialite,Mg2Al3(AlSi5)O18,"{""Mg"": 2.0, ""Al"": 4.0, ""Si"": 5.0, ""O"": 18.0}",584.945,#FFFFFF,hexagonal
Indigirite,Mg2Al2(CO3)4(OH)2·15H2O,"{""Mg"": 2.0, ""Al"": 2.0, ""C"": 4.0, ""O"": 29.0, ""H"": 32.0}",646.845,#FFFFFF,
Ingodite,Bi2TeS,"{""Bi"": 2.0, ""Te"": 1.0, ""S"": 1.0}",577.62,#A9A9A9,hexagonal
Insizwaite,PtBi2,"{""Pt"": 1.0, ""Bi"": 2.0}",613.04,#D2B48C,cubic
Interliveingite,AgPb18As25S56,"{""Ag"": 1.0, ""Pb"": 18.0, ""As"": 25.0, ""S"": 56.0}",7505.88,#708090,monoclinic
Inyoite,CaB3O3(OH)5·4H2O,"{""Ca"": 1.0, ""B"": 3.0, ""O"": 12.0, ""H"": 13.0}",277.6,#FFFFFF,monoclinic
Iodargyrite,AgI,"{""Ag"": 1.0, ""I"": 1.0}",234.77,#C0C0C0,hexagonal
Iowaite,Mg6Fe3+2(OH)16Cl2·4H2O,"{""Mg"": 6.0, ""Fe"": 2.0, ""O"": 20.0, ""H"": 24.0, ""Cl"": 2.0}",672.592,#556B2F,hexagonal
Iquiqueite,K3Na4Mg(CrO4)B24O39(OH)·12H2O,"{""K"": 3.0, ""Na"": 4.0, ""Mg"": 1.0, ""Cr"": 1.0, ""O"": 56.0, ""B"": 24.0, ""H"": 25.0}",1466.139,#FFFFFF,hexagonal
Iranite,CuPb10(CrO4)6(SiO4)2(OH)2,"{""Cu"": 1.0, ""Pb"": 10.0, ""Cr"": 6.0, ""O"": 34.0, ""Si"": 2.0, ""H"": 2.0}",3049.674,#FFFFFF,triclinic
Irarsite,IrAsS,"{""Ir"": 1.0, ""As"": 1.0, ""S"": 1.0}",299.202,#FFD700,cubic
Irhtemite,Ca4Mg(AsO4)2(AsO3OH)2·4H2O,"{""Ca"": 4.0, ""Mg"": 1.0, ""As"": 4.0, ""O"": 20.0, ""H"": 10.0}",814.365,#FFFFFF,monoclinic
Iridarsenite,IrAs2,"{""Ir"": 1.0, ""As"": 2.0}",342.064,#808080,monoclinic
Iridium,Ir,"{""Ir"": 1.0}",192.22,#FFFFFF,cubic
Iriginite,(UO2)Mo6+2O7·3H2O,"{""U"": 1.0, ""O"": 12.0, ""Mo"": 2.0, ""H"": 6.0}",627.966,#FFFFFF,orthorhombic
Iron,Fe,"{""Fe"": 1.0}",55.845,#8B4513,cubic
Irtyshite,Na2Ta4O11,"{""Na"": 2.0, ""Ta"": 4.0, ""O"": 11.0}",945.769,#FFFFFF,hexagonal
Iskandarovite,Sb6O7(SO4)2,"{""Sb"": 6.0, ""O"": 15.0, ""S"": 2.0}",1034.665,#FFFF00,orthorhombic
Isoclasite,Ca2(PO4)(OH)·2H2O,"{""Ca"": 2.0, ""P"": 1.0, ""O"": 7.0, ""H"": 5.0}",228.163,#FFFFFF,
Isocubanite,CuFe2S3,"{""Cu"": 1.0, ""Fe"": 2.0, ""S"": 3.0}",271.416,#DAA520,cubic
Isoferroplatinum,Pt3Fe,"{""Pt"": 3.0, ""Fe"": 1.0}",641.085,#8B4513,cubic
Isokite,CaMg(PO4)F,"{""Ca"": 1.0, ""Mg"": 1.0, ""P"": 1.0, ""O"": 4.0, ""F"": 1.0}",178.351,#FFFFFF,monoclinic
Isolueshite,NaNbO3,"{""Na"": 1.0, ""Nb"": 1.0, ""O"": 3.0}",163.893,#FFFFFF,cubic
Isomertieite,Pd11Sb2As2,"{""Pd"": 11.0, ""Sb"": 2.0, ""As"": 2.0}",1563.984,#808080,cubic
Isselite,Cu6(SO4)(OH)10(H2O)4·H2O,"{""Cu"": 6.0, ""S"": 1.0, ""O"": 19.0, ""H"": 20.0}",737.477,#FFFFFF,orthorhombic
Itelmenite,Na2CuMg2(SO4)4,"{""Na"": 2.0, ""Cu"": 1.0, ""Mg"": 2.0, ""S"": 4.0, ""O"": 16.0}",542.36,#FFFFFF,orthorhombic
Itoigawaite,SrAl2Si2O7(OH)2·H2O,"{""Sr"": 1.0, ""Al"": 2.0, ""Si"": 2.0, ""O"": 10.0, ""H"": 4.0}",361.776,#FFFFFF,monoclinic
Itoite,Pb3GeO2(SO4)2(OH)2,"{""Pb"": 3.0, ""Ge"": 1.0, ""O"": 12.0, ""S"": 2.0, ""H"": 2.0}",952.354,#FFFFFF,orthorhombic
Itsiite,Ba2Ca(BSi2O7)2,"{""Ba"": 2.0, ""Ca"": 1.0, ""B"": 2.0, ""Si"": 4.0, ""O"": 14.0}",672.684,#FFFFFF,tetragonal
Ivanyukite-Cu,Cu[Ti4O2(OH)2(SiO4)3]·7H2O,"{""Cu"": 1.0, ""Ti"": 4.0, ""O"": 23.0, ""H"": 16.0, ""Si"": 3.0}",723.374,#FFFFFF,cubic
Ivanyukite-K,K2[Ti4O2(OH)2(SiO4)3]·9H2O,"{""K"": 2.0, ""Ti"": 4.0, ""O"": 25.0, ""H"": 20.0, ""Si"": 3.0}",774.054,#FFFFFF,cubic
Ivanyukite-Na,Na2[Ti4O2(OH)2(SiO4)3]·6H2O,"{""Na"": 2.0, ""Ti"": 4.0, ""O"": 22.0, ""H"": 14.0, ""Si"": 3.0}",687.793,#FFFFFF,hexagonal
Ivsite,Na3H(SO4)2,"{""Na"": 3.0, ""H"": 1.0, ""S"": 2.0, ""O"": 8.0}",262.09,#FFFFFF,monoclinic
Iwashiroite-(Y),YTaO4,"{""Y"": 1.0, ""Ta"": 1.0, ""O"": 4.0}",333.852,#FFFFFF,monoclinic
Ixiolite-(Fe2+),(Ta2/3Fe2+1/3)O2,"{""Ta"": 2.0, ""Fe"": 1.0, ""O"": 2.0}",449.743,#8B4513,orthorhombic
Jachymovite,(UO2)8(SO4)(OH)14·13H2O,"{""U"": 8.0, ""O"": 47.0, ""S"": 1.0, ""H"": 40.0}",2728.573,#FFFFFF,monoclinic
Jacquesdietrichite,Cu2BO(OH)5,"{""Cu"": 2.0, ""B"": 1.0, ""O"": 6.0, ""H"": 5.0}",238.936,#FFFFFF,orthorhombic
Jacutingaite,Pt2HgSe3,"{""Pt"": 2.0, ""Hg"": 1.0, ""Se"": 3.0}",827.663,#FFFFFF,hexagonal
Jadarite,LiNaB3SiO7(OH),"{""Li"": 1.0, ""Na"": 1.0, ""B"": 3.0, ""Si"": 1.0, ""O"": 8.0, ""H"": 1.0}",219.445,#FFFFFF,monoclinic
Jadeite,NaAlSi2O6,"{""Na"": 1.0, ""Al"": 1.0, ""Si"": 2.0, ""O"": 6.0}",202.136,#FFFFFF,monoclinic
Jaffeite,Ca6Si2O7(OH)6,"{""Ca"": 6.0, ""Si"": 2.0, ""O"": 13.0, ""H"": 6.0}",510.673,#FFFFFF,hexagonal
Jagowerite,BaAl2(PO4)2(OH)2,"{""Ba"": 1.0, ""Al"": 2.0, ""P"": 2.0, ""O"": 10.0, ""H"": 2.0}",415.248,#FFFFFF,triclinic
Jagueite,Cu2Pd3Se4,"{""Cu"": 2.0, ""Pd"": 3.0, ""Se"": 4.0}",762.236,#00BFFF,monoclinic
Jahnsite-(CaFeMg),CaFe2+Mg2Fe3+2(PO4)4(OH)2·8H2O,"{""Ca"": 1.0, ""Fe"": 3.0, ""Mg"": 2.0, ""P"": 4.0, ""O"": 26.0, ""H"": 18.0}",814.237,#556B2F,monoclinic
Jahnsite-(NaFeMg),NaFe3+Mg2Fe3+2(PO4)4(OH)2·8H2O,"{""Na"": 1.0, ""Fe"": 3.0, ""Mg"": 2.0, ""P"": 4.0, ""O"": 26.0, ""H"": 18.0}",797.149,#556B2F,monoclinic
Jaipurite,CoS,"{""Co"": 1.0, ""S"": 1.0}",90.993,#A9A9A9,hexagonal
Jakobssonite,CaAlF5,"{""Ca"": 1.0, ""Al"": 1.0, ""F"": 5.0}",162.05,#FFFFFF,monoclinic
Jalpaite,Ag3CuS2,"{""Ag"": 3.0, ""Cu"": 1.0, ""S"": 2.0}",451.276,#A9A9A9,tetragonal
Jamesonite,Pb4FeSb6S14,"{""Pb"": 4.0, ""Fe"": 1.0, ""Sb"": 6.0, ""S"": 14.0}",2064.045,#DAA520,monoclinic
Jarandolite,CaB3O4(OH)3,"{""Ca"": 1.0, ""B"": 3.0, ""O"": 7.0, ""H"": 3.0}",187.525,#FFFFFF,monoclinic
Jarosite,KFe3+3(SO4)2(OH)6,"{""K"": 1.0, ""Fe"": 3.0, ""S"": 2.0, ""O"": 14.0, ""H"": 6.0}",500.787,#556B2F,hexagonal
Jasmundite,Ca11O2(SiO4)4S,"{""Ca"": 11.0, ""O"": 18.0, ""Si"": 4.0, ""S"": 1.0}",873.24,#FFFFFF,tetragonal
Jasrouxite,Ag16Pb4(Sb25As15)Σ40S72,"{""Ag"": 16.0, ""Pb"": 4.0, ""Sb"": 1000.0, ""As"": 600.0, ""S"": 72.0}",171576.24,#708090,triclinic
Jaszczakite,[Bi3S3][AuS2],"{""Bi"": 3.0, ""S"": 5.0, ""Au"": 1.0}",984.21,#A9A9A9,orthorhombic
Javorieite,KFeCl3,"{""K"": 1.0, ""Fe"": 1.0, ""Cl"": 3.0}",201.293,#8B4513,orthorhombic
Jeankempite,Ca5(AsO4)2(AsO3OH)2(H2O)7,"{""Ca"": 5.0, ""As"": 4.0, ""O"": 23.0, ""H"": 16.0}",884.183,#FFFFFF,triclinic
Jedwabite,Fe7Ta3,"{""Fe"": 7.0, ""Ta"": 3.0}",933.765,#8B4513,hexagonal
Jeffbenite,Mg3Al2Si3O12,"{""Mg"": 3.0, ""Al"": 2.0, ""Si"": 3.0, ""O"": 12.0}",403.122,#FFFFFF,tetragonal
Jennite,Ca9(Si3O9)2(OH)6·8H2O,"{""Ca"": 9.0, ""Si"": 6.0, ""O"": 32.0, ""H"": 22.0}",1063.356,#FFFFFF,triclinic
Jensenite,Cu2+3Te6+O6·2H2O,"{""Cu"": 3.0, ""Te"": 1.0, ""O"": 8.0, ""H"": 4.0}",450.262,#FFFFFF,monoclinic
Jentschite,TlPbAs2SbS6,"{""Tl"": 1.0, ""Pb"": 1.0, ""As"": 2.0, ""Sb"": 1.0, ""S"": 6.0}",875.544,#708090,monoclinic
Jeremejevite,Al6(BO3)5F3,"{""Al"": 6.0, ""B"": 5.0, ""O"": 15.0, ""F"": 3.0}",512.921,#FFFFFF,hexagonal
Jervisite,NaSc3+Si2O6,"{""Na"": 1.0, ""Sc"": 1.0, ""Si"": 2.0, ""O"": 6.0}",220.11,#FFFFFF,monoclinic
Jezekite,Na8[(UO2)(CO3)3](SO4)2·3H2O,"{""Na"": 8.0, ""U"": 1.0, ""O"": 22.0, ""C"": 3.0, ""S"": 2.0, ""H"": 6.0}",880.129,#FFFFFF,hexagonal
Jianmuite,ZrTi4+Ti3+5Al3O16,"{""Zr"": 1.0, ""Ti"": 6.0, ""Al"": 3.0, ""O"": 16.0}",715.356,#FFFFFF,tetragonal
Jimkrieghite,Ca(C2H3O3)2,"{""Ca"": 1.0, ""C"": 4.0, ""H"": 6.0, ""O"": 6.0}",190.164,#FFFFFF,orthorhombic
Jimthompsonite,Mg5Si6O16(OH)2,"{""Mg"": 5.0, ""Si"": 6.0, ""O"": 18.0, ""H"": 2.0}",580.033,#FFFFFF,orthorhombic
Jingsuiite,TiB2,"{""Ti"": 1.0, ""B"": 2.0}",69.487,#FFFFFF,hexagonal
Jingwenite-(Y),YAlV4+(SiO4)O2(OH)2,"{""Y"": 1.0, ""Al"": 1.0, ""V"": 1.0, ""Si"": 1.0, ""O"": 8.0, ""H"": 2.0}",324.923,#FFFFFF,monoclinic
Jinshajiangite,BaNaFe2+4Ti2(Si2O7)2O2(OH)2F,"{""Ba"": 1.0, ""Na"": 1.0, ""Fe"": 4.0, ""Ti"": 2.0, ""Si"": 4.0, ""O"": 18.0, ""H"": 2.0, ""F"": 1.0}",900.77,#556B2F,monoclinic
Joanneumite,Cu(C3N3O3H2)2(NH3)2,"{""Cu"": 1.0, ""C"": 6.0, ""N"": 8.0, ""O"": 6.0, ""H"": 10.0}",353.742,#FFFFFF,
Joaquinite-(Ce),NaBa2Fe2+Ti2Ce2(Si4O12)2O2(OH)·H2O,"{""Na"": 1.0, ""Ba"": 2.0, ""Fe"": 1.0, ""Ti"": 2.0, ""Ce"": 2.0, ""Si"": 8.0, ""O"": 28.0, ""H"": 3.0}",1405.145,#556B2F,monoclinic
Joesmithite,Pb2+Ca2(Mg3Fe3+2)(Si6Be2)O22(OH)2,"{""Pb"": 1.0, ""Ca"": 2.0, ""Mg"": 3.0, ""Fe"": 2.0, ""Si"": 6.0, ""Be"": 2.0, ""O"": 24.0, ""H"": 2.0}",1044.4874,#556B2F,monoclinic
Johachidolite,CaAlB3O7,"{""Ca"": 1.0, ""Al"": 1.0, ""B"": 3.0, ""O"": 7.0}",211.483,#FFFFFF,orthorhombic
Johannite,Cu(UO2)2(SO4)2(OH)2·8H2O,"{""Cu"": 1.0, ""U"": 2.0, ""O"": 22.0, ""S"": 2.0, ""H"": 18.0}",973.848,#FFFFFF,triclinic
Johillerite,NaCuMgMg2(AsO4)3,"{""Na"": 1.0, ""Cu"": 1.0, ""Mg"": 3.0, ""As"": 3.0, ""O"": 12.0}",576.205,#FFFFFF,monoclinic
Johnbaumite,Ca5(AsO4)3(OH),"{""Ca"": 5.0, ""As"": 3.0, ""O"": 13.0, ""H"": 1.0}",634.151,#FFFFFF,monoclinic
Johnkoivulaite,Cs[Be2B]Mg2Si6O18,"{""Cs"": 1.0, ""Be"": 2.0, ""B"": 1.0, ""Mg"": 2.0, ""Si"": 6.0, ""O"": 18.0}",666.8464,#FFFFFF,hexagonal
Johnsomervilleite,Na3CaFe2+11(PO4)9,"{""Na"": 3.0, ""Ca"": 1.0, ""Fe"": 11.0, ""P"": 9.0, ""O"": 36.0}",1578.073,#556B2F,hexagonal
Johntomaite,BaFe2+2Fe3+2(PO4)3(OH)3,"{""Ba"": 1.0, ""Fe"": 4.0, ""P"": 3.0, ""O"": 15.0, ""H"": 3.0}",696.641,#556B2F,monoclinic
Joliotite,(UO2)(CO3)·2H2O,"{""U"": 1.0, ""O"": 7.0, ""C"": 1.0, ""H"": 4.0}",366.066,#FFFFFF,orthorhombic
Jolliffeite,NiAsSe,"{""Ni"": 1.0, ""As"": 1.0, ""Se"": 1.0}",212.586,#7FFF00,cubic
Jonlarsenite,Al4Cu9,"{""Al"": 4.0, ""Cu"": 9.0}",679.842,#00BFFF,cubic
Jordanite,Pb14As6S23,"{""Pb"": 14.0, ""As"": 6.0, ""S"": 23.0}",4087.712,#708090,monoclinic
Jordisite,MoS2,"{""Mo"": 1.0, ""S"": 2.0}",160.07,#A9A9A9,
Jorgensenite,Na2Sr14Na2Al12F64(OH)4,"{""Na"": 4.0, ""Sr"": 14.0, ""Al"": 12.0, ""F"": 64.0, ""O"": 4.0, ""H"": 4.0}",2926.324,#FFFFFF,monoclinic
Joseite-A,Bi4TeS2,"{""Bi"": 4.0, ""Te"": 1.0, ""S"": 2.0}",1027.64,#A9A9A9,
Joseite-B,Bi4Te2S,"{""Bi"": 4.0, ""Te"": 2.0, ""S"": 1.0}",1123.18,#A9A9A9,
Joteite,Ca2CuAl(AsO4)[AsO3(OH)]2(OH)2·5H2O,"{""Ca"": 2.0, ""Cu"": 1.0, ""Al"": 1.0, ""As"": 3.0, ""O"": 19.0, ""H"": 14.0}",713.543,#FFFFFF,triclinic
Juabite,CaCu10(Te4+O3)4(AsO4)4(OH)2·4H2O,"{""Ca"": 1.0, ""Cu"": 10.0, ""Te"": 4.0, ""O"": 34.0, ""As"": 4.0, ""H"": 10.0}",2039.672,#FFFFFF,triclinic
Juangodoyite,Na2Cu(CO3)2,"{""Na"": 2.0, ""Cu"": 1.0, ""C"": 2.0, ""O"": 6.0}",229.542,#FFFFFF,monoclinic
Juansilvaite,Na5Al3[AsO3(OH)]4[AsO2(OH)2]2(SO4)2·4H2O,"{""Na"": 5.0, ""Al"": 3.0, ""As"": 6.0, ""O"": 36.0, ""H"": 16.0, ""S"": 2.0}",1301.64,#FFFFFF,monoclinic
Julgoldite-(Fe2+),Ca2Fe2+Fe3+2(Si2O7)(SiO4)(OH)2·H2O,"{""Ca"": 2.0, ""Fe"": 3.0, ""Si"": 3.0, ""O"": 14.0, ""H"": 4.0}",559.964,#556B2F,monoclinic
Julgoldite-(Fe3+),Ca2Fe3+Fe3+2(Si2O7)(SiO4)O(OH)·H2O,"{""Ca"": 2.0, ""Fe"": 3.0, ""Si"": 3.0, ""O"": 14.0, ""H"": 3.0}",558.956,#556B2F,monoclinic
Julgoldite-(Mg),Ca2MgFe3+2(Si2O7)(SiO4)(OH)2·H2O,"{""Ca"": 2.0, ""Mg"": 1.0, ""Fe"": 2.0, ""Si"": 3.0, ""O"": 14.0, ""H"": 4.0}",528.424,#556B2F,
Julienite,Na2Co(SCN)4·8H2O,"{""Na"": 2.0, ""Co"": 1.0, ""S"": 4.0, ""C"": 4.0, ""N"": 4.0, ""H"": 16.0, ""O"": 8.0}",481.345,#FFFFFF,monoclinic
Juonniite,CaMgSc(PO4)2(OH)·4H2O,"{""Ca"": 1.0, ""Mg"": 1.0, ""Sc"": 1.0, ""P"": 2.0, ""O"": 13.0, ""H"": 9.0}",388.346,#FFFFFF,orthorhombic
Jurbanite,Al(SO4)(OH)·5H2O,"{""Al"": 1.0, ""S"": 1.0, ""O"": 10.0, ""H"": 11.0}",230.12,#FFFFFF,monoclinic
Jusite,Na2Ca15Al4Si16O54·17H2O,"{""Na"": 2.0, ""Ca"": 15.0, ""Al"": 4.0, ""Si"": 16.0, ""O"": 71.0, ""H"": 34.0}",2374.639,#FFFFFF,
Juxingite,Bi6Cu140Fe30S125,"{""Bi"": 6.0, ""Cu"": 140.0, ""Fe"": 30.0, ""S"": 125.0}",15833.17,#DAA520,cubic
Kaatialaite,Fe3+[AsO2(OH)2]3·5H2O,"{""Fe"": 1.0, ""As"": 3.0, ""O"": 17.0, ""H"": 16.0}",568.722,#556B2F,monoclinic
Kabalovite,Fe2+3Fe3+4(PO4)6,"{""Fe"": 7.0, ""P"": 6.0, ""O"": 24.0}",960.735,#8B4513,triclinic
Kadyrelite,([Hg1+]2)3OBr3(OH),"{""Hg"": 6.0, ""O"": 2.0, ""Br"": 3.0, ""H"": 1.0}",1476.258,#FFFFFF,cubic
Kaersutite,NaCa2(Mg3AlTi4+)(Si6Al2)O22O2,"{""Na"": 1.0, ""Ca"": 2.0, ""Mg"": 3.0, ""Al"": 3.0, ""Ti"": 1.0, ""Si"": 6.0, ""O"": 24.0}",857.36,#FFFFFF,monoclinic
Kahlenbergite,KAl11O17,"{""K"": 1.0, ""Al"": 11.0, ""O"": 17.0}",607.883,#FFFFFF,hexagonal
Kahlerite,Fe2+(UO2)2(AsO4)2·12H2O,"{""Fe"": 1.0, ""U"": 2.0, ""O"": 24.0, ""As"": 2.0, ""H"": 24.0}",1089.917,#556B2F,
Kainosite-(Y),Ca2Y2(SiO3)4(CO3)·H2O,"{""Ca"": 2.0, ""Y"": 2.0, ""Si"": 4.0, ""O"": 16.0, ""C"": 1.0, ""H"": 2.0}",640.319,#FFFFFF,orthorhombic
Kainotropite,Cu4Fe3+O2(V2O7)(VO4),"{""Cu"": 4.0, ""Fe"": 1.0, ""O"": 13.0, ""V"": 3.0}",670.842,#556B2F,orthorhombic
Kaitianite,Ti3+2Ti4+O5,"{""Ti"": 3.0, ""O"": 5.0}",223.596,#FFFFFF,monoclinic
Kalborsite,K6Al4BSi6O20(OH)4Cl,"{""K"": 6.0, ""Al"": 4.0, ""B"": 1.0, ""Si"": 6.0, ""O"": 24.0, ""H"": 4.0, ""Cl"": 1.0}",945.294,#FFFFFF,tetragonal
Kalgoorlieite,As2Te3,"{""As"": 2.0, ""Te"": 3.0}",532.644,#808080,monoclinic
Kaliborite,KHMg2B12O16(OH)10·4H2O,"{""K"": 1.0, ""H"": 19.0, ""Mg"": 2.0, ""B"": 12.0, ""O"": 30.0}",716.55,#FFFFFF,monoclinic
Kalicinite,KH(CO3),"{""K"": 1.0, ""H"": 1.0, ""C"": 1.0, ""O"": 3.0}",100.114,#FFFFFF,monoclinic
Kalifersite,K5Fe3+7Si20O50(OH)6·12H2O,"{""K"": 5.0, ""Fe"": 7.0, ""Si"": 20.0, ""O"": 68.0, ""H"": 30.0}",2266.277,#556B2F,triclinic
Kalinite,KAl(SO4)2·11H2O,"{""K"": 1.0, ""Al"": 1.0, ""S"": 2.0, ""O"": 19.0, ""H"": 22.0}",456.357,#FFFFFF,
Kaliochalcite,KCu2(SO4)2[(OH)(H2O)],"{""K"": 1.0, ""Cu"": 2.0, ""S"": 2.0, ""O"": 10.0, ""H"": 3.0}",393.324,#FFFFFF,monoclinic
Kaliophilite,KAlSiO4,"{""K"": 1.0, ""Al"": 1.0, ""Si"": 1.0, ""O"": 4.0}",158.161,#FFFFFF,hexagonal
Kalistrontite,K2Sr(SO4)2,"{""K"": 2.0, ""Sr"": 1.0, ""S"": 2.0, ""O"": 8.0}",357.928,#FFFFFF,hexagonal
Kalithallite,K3Tl3+Cl6·2H2O,"{""K"": 3.0, ""Tl"": 1.0, ""Cl"": 6.0, ""H"": 4.0, ""O"": 2.0}",570.404,#FFFFFF,tetragonal
Kalsilite,KAlSiO4,"{""K"": 1.0, ""Al"": 1.0, ""Si"": 1.0, ""O"": 4.0}",158.161,#FFFFFF,hexagonal
Kalungaite,PdAsSe,"{""Pd"": 1.0, ""As"": 1.0, ""Se"": 1.0}",260.313,#808080,cubic
Kalyuzhnyite-(Ce),NaKCaSrCeTi(Si8O21)OF(H2O)3,"{""Na"": 1.0, ""K"": 1.0, ""Ca"": 1.0, ""Sr"": 1.0, ""Ce"": 1.0, ""Ti"": 1.0, ""Si"": 8.0, ""O"": 25.0, ""F"": 1.0, ""H"": 6.0}",1027.474,#FFFFFF,monoclinic
Kamaishilite,Ca2(SiAl2)O6(OH)2,"{""Ca"": 2.0, ""Si"": 1.0, ""Al"": 2.0, ""O"": 8.0, ""H"": 2.0}",292.213,#FFFFFF,tetragonal
Kamarizaite,Fe3+3(AsO4)2(OH)3·3H2O,"{""Fe"": 3.0, ""As"": 2.0, ""O"": 14.0, ""H"": 9.0}",550.437,#556B2F,orthorhombic
Kambaldaite,NaNi4(CO3)3(OH)3·3H2O,"{""Na"": 1.0, ""Ni"": 4.0, ""C"": 3.0, ""O"": 15.0, ""H"": 9.0}",542.852,#FFFFFF,hexagonal
Kamchatkite,KCu3O(SO4)2Cl,"{""K"": 1.0, ""Cu"": 3.0, ""O"": 9.0, ""S"": 2.0, ""Cl"": 1.0}",473.297,#FFFFFF,orthorhombic
Kamenevite,K2TiSi3O9·H2O,"{""K"": 2.0, ""Ti"": 1.0, ""Si"": 3.0, ""O"": 10.0, ""H"": 2.0}",372.324,#FFFFFF,orthorhombic
Kamiokite,Fe2+2Mo4+3O8,"{""Fe"": 2.0, ""Mo"": 3.0, ""O"": 8.0}",527.532,#8B4513,hexagonal
Kamotoite-(Y),Y2O4(UO2)4(CO3)3·14H2O,"{""Y"": 2.0, ""O"": 35.0, ""U"": 4.0, ""C"": 3.0, ""H"": 28.0}",1754.154,#FFFFFF,monoclinic
Kampfite,Ba12(Si11Al5)O31(CO3)8Cl5,"{""Ba"": 12.0, ""Si"": 11.0, ""Al"": 5.0, ""O"": 55.0, ""C"": 8.0, ""Cl"": 5.0}",3245.088,#FFFFFF,monoclinic
Kamphaugite-(Y),CaY(CO3)2(OH)·H2O,"{""Ca"": 1.0, ""Y"": 1.0, ""C"": 2.0, ""O"": 8.0, ""H"": 3.0}",284.022,#FFFFFF,tetragonal
Kanatzidisite,(SbBiS3)2Te2,"{""Sb"": 2.0, ""Bi"": 2.0, ""S"": 6.0, ""Te"": 2.0}",1109.04,#A9A9A9,monoclinic
Kanemite,NaSi2O4(OH)·3H2O,"{""Na"": 1.0, ""Si"": 2.0, ""O"": 8.0, ""H"": 7.0}",214.208,#FFFFFF,orthorhombic
Kangjinlaite,Ti11Si10,"{""Ti"": 11.0, ""Si"": 10.0}",807.387,#FFFFFF,tetragonal
Kannanite,Ca4Al4(MgAl)(VO4)(SiO4)2(Si3O10)(OH)6,"{""Ca"": 4.0, ""Al"": 5.0, ""Mg"": 1.0, ""V"": 1.0, ""O"": 28.0, ""Si"": 5.0, ""H"": 6.0}",964.914,#FFFFFF,orthorhombic
Kantorite,K2NaMg(SO4)2F,"{""K"": 2.0, ""Na"": 1.0, ""Mg"": 1.0, ""S"": 2.0, ""O"": 8.0, ""F"": 1.0}",336.601,#FFFFFF,orthorhombic
Kaolinite,Al2Si2O5(OH)4,"{""Al"": 2.0, ""Si"": 2.0, ""O"": 9.0, ""H"": 4.0}",258.157,#FFFFFF,monoclinic
Kapitsaite-(Y),Ba4Y2Si8B4O28F,"{""Ba"": 4.0, ""Y"": 2.0, ""Si"": 8.0, ""B"": 4.0, ""O"": 28.0, ""F"": 1.0}",1462.022,#FFFFFF,triclinic
Kapundaite,CaNaFe3+4(PO4)4(OH)3·5H2O,"{""Ca"": 1.0, ""Na"": 1.0, ""Fe"": 4.0, ""P"": 4.0, ""O"": 24.0, ""H"": 13.0}",807.424,#556B2F,triclinic
Kapustinite,Na6ZrSi6O16(OH)2,"{""Na"": 6.0, ""Zr"": 1.0, ""Si"": 6.0, ""O"": 18.0, ""H"": 2.0}",687.672,#FFFFFF,monoclinic
Karasugite,SrCaAlF7,"{""Sr"": 1.0, ""Ca"": 1.0, ""Al"": 1.0, ""F"": 7.0}",287.666,#FFFFFF,monoclinic
Karchevskyite,Mg18Al9(OH)54Sr2(CO3)9(H2O)6(H3O)5,"{""Mg"": 18.0, ""Al"": 9.0, ""O"": 92.0, ""H"": 81.0, ""Sr"": 2.0, ""C"": 9.0}",2517.223,#FFFFFF,hexagonal
Karelianite,V2O3,"{""V"": 2.0, ""O"": 3.0}",149.881,#FFFFFF,hexagonal
Karenwebberite,NaFe2+(PO4),"{""Na"": 1.0, ""Fe"": 1.0, ""P"": 1.0, ""O"": 4.0}",173.805,#556B2F,orthorhombic
Karibibite,Fe3+3(As3+O2)4(As3+2O5)(OH),"{""Fe"": 3.0, ""As"": 6.0, ""O"": 14.0, ""H"": 1.0}",842.061,#556B2F,orthorhombic
Karlditmarite,Cu9O4(PO4)2(SO4)2,"{""Cu"": 9.0, ""O"": 20.0, ""P"": 2.0, ""S"": 2.0}",1017.962,#FFFFFF,triclinic
Karlseifertite,Pb(Ga2Ge)(AsO4)2(OH)6,"{""Pb"": 1.0, ""Ga"": 2.0, ""Ge"": 1.0, ""As"": 2.0, ""O"": 14.0, ""H"": 6.0}",799.154,#FFFFFF,hexagonal
Karnasurtite-(Ce),CeTiAlSi2O7(OH)4·3H2O,"{""Ce"": 1.0, ""Ti"": 1.0, ""Al"": 1.0, ""Si"": 2.0, ""O"": 14.0, ""H"": 10.0}",505.205,#FFFFFF,
Karpenkoite,Co3(V2O7)(OH)2·2H2O,"{""Co"": 3.0, ""V"": 2.0, ""O"": 11.0, ""H"": 6.0}",460.72,#FFFFFF,hexagonal
Karpovite,Tl2VO(SO4)2(H2O),"{""Tl"": 2.0, ""V"": 1.0, ""O"": 10.0, ""S"": 2.0, ""H"": 2.0}",685.828,#FFFFFF,monoclinic
Kasatkinite,Ba2Ca8B5Si8O32(OH)3·6H2O,"{""Ba"": 2.0, ""Ca"": 8.0, ""B"": 5.0, ""Si"": 8.0, ""O"": 41.0, ""H"": 15.0}",1545.093,#FFFFFF,monoclinic
Kashinite,Ir2S3,"{""Ir"": 2.0, ""S"": 3.0}",480.62,#A9A9A9,orthorhombic
Kasolite,Pb(UO2)(SiO4)·H2O,"{""Pb"": 1.0, ""U"": 1.0, ""O"": 7.0, ""Si"": 1.0, ""H"": 2.0}",587.324,#FFFFFF,monoclinic
Kassite,CaTi2O4(OH)2,"{""Ca"": 1.0, ""Ti"": 2.0, ""O"": 6.0, ""H"": 2.0}",233.822,#FFFFFF,monoclinic
Katanite,Ba3NbFe3Si2O14,"{""Ba"": 3.0, ""Nb"": 1.0, ""Fe"": 3.0, ""Si"": 2.0, ""O"": 14.0}",952.587,#556B2F,hexagonal
Katayamalite,KLi3Ca7Ti2(SiO3)12(OH)2,"{""K"": 1.0, ""Li"": 3.0, ""Ca"": 7.0, ""Ti"": 2.0, ""Si"": 12.0, ""O"": 38.0, ""H"": 2.0}",1383.196,#FFFFFF,triclinic