name,formula,elements,density,color,crystal_system,dna
Phuralumite,Al2[(UO2)3(PO4)2O(OH)](OH)3(H2O)9,"{""Al"": 2.0, ""U"": 3.0, ""O"": 28.0, ""P"": 2.0, ""H"": 22.0}",1300.17,#FFFFFF,monoclinic,"{""system"": ""monoclinic"", ""scale"": [0.7, 1.0, 1.3], ""optical"": {""transparent"": 1, ""refraction"": 1.5, ""birefringence"": 0.01}}"
Phurcalite,Ca2(UO2)3O2(PO4)2·7H2O,"{""Ca"": 2.0, ""U"": 3.0, ""O"": 23.0, ""P"": 2.0, ""H"": 14.0}",1238.3,#FFFFFF,orthorhombic,"{""system"": ""orthorhombic"", ""scale"": [0.8, 1.0, 1.2], ""optical"": {""transparent"": 1, ""refraction"": 1.5, ""birefringence"": 0.01}}"
Phylloretine,C18H18,"{""C"": 18.0, ""H"": 18.0}",234.32,#FFFFFF,,"{""system"": """", ""scale"": [1.0, 1.0, 1.0], ""optical"": {""transparent"": 1, ""refraction"": 1.5, ""birefringence"": 0.01}}"
Phyllotungstite,HCaFe3+3(WO4)6·10H2O,"{""H"": 21.0, ""Ca"": 1.0, ""Fe"": 3.0, ""W"": 6.0, ""O"": 34.0}",1875.84,#556B2F,orthorhombic,"{""system"": ""orthorhombic"", ""scale"": [0.8, 1.0, 1.2], ""optical"": {""transparent"": 0, ""refraction"": 0.0, ""birefringence"": 0.0}}"
Picaite,NaCa[AsO3OH][AsO2(OH)2],"{""Na"": 1.0, ""Ca"": 1.0, ""As"": 2.0, ""O"": 8.0, ""H"": 3.0}",343.93,#FFFFFF,monoclinic,"{""system"": ""monoclinic"", ""scale"": [0.7, 1.0, 1.3], ""optical"": {""transparent"": 1, ""refraction"": 1.5, ""birefringence"": 0.01}}"
Pickeringite,MgAl2(SO4)4·22H2O,"{""Mg"": 1.0, ""Al"": 2.0, ""S"": 4.0, ""O"": 38.0, ""H"": 44.0}",858.86,#FFFFFF,monoclinic,"{""system"": ""monoclinic"", ""scale"": [0.7, 1.0, 1.3], ""optical"": {""transparent"": 1, ""refraction"": 1.5, ""birefringence"": 0.01}}"
Picotpaulite,TlFe2S3,"{""Tl"": 1.0, ""Fe"": 2.0, ""S"": 3.0}",412.26,#DAA520,orthorhombic,"{""system"": ""orthorhombic"", ""scale"": [0.8, 1.0, 1.2], ""optical"": {""transparent"": 0, ""refraction"": 0.0, ""birefringence"": 0.0}}"
Picromerite,K2Mg(SO4)2·6H2O,"{""K"": 2.0, ""Mg"": 1.0, ""S"": 2.0, ""O"": 14.0, ""H"": 12.0}",402.73,#FFFFFF,monoclinic,"{""system"": ""monoclinic"", ""scale"": [0.7, 1.0, 1.3], ""optical"": {""transparent"": 1, ""refraction"": 1.5, ""birefringence"": 0.01}}"
Picropharmacolite,Ca4Mg(AsO3OH)2(AsO4)2·11H2O,"{""Ca"": 4.0, ""Mg"": 1.0, ""As"": 4.0, ""O"": 27.0, ""H"": 24.0}",940.5,#FFFFFF,triclinic,"{""system"": ""triclinic"", ""scale"": [0.7, 1.0, 1.3], ""optical"": {""transparent"": 1, ""refraction"": 1.5, ""birefringence"": 0.01}}"
Piergorite-(Ce),Ca8Ce2AlLiSi6B8O36(OH)2,"{""Ca"": 8.0, ""Ce"": 2.0, ""Al"": 1.0, ""Li"": 1.0, ""Si"": 6.0, ""B"": 8.0, ""O"": 38.0, ""H"": 2.0}",1499.84,#FFFFFF,monoclinic,"{""system"": ""monoclinic"", ""scale"": [0.7, 1.0, 1.3], ""optical"": {""transparent"": 1, ""refraction"": 1.5, ""birefringence"": 0.01}}"
Pigotite,Al4C6H5O10·13H2O (?),"{""Al"": 4.0, ""C"": 6.0, ""H"": 31.0, ""O"": 23.0}",579.23,#FFFFFF,,"{""system"": """", ""scale"": [1.0, 1.0, 1.0], ""optical"": {""transparent"": 1, ""refraction"": 1.5, ""birefringence"": 0.01}}"
Pilanesbergite,Na2Ca2Fe2Ti2(Si2O7)2O2F2,"{""Na"": 2.0, ""Ca"": 2.0, ""Fe"": 2.0, ""Ti"": 2.0, ""Si"": 4.0, ""O"": 16.0, ""F"": 2.0}",739.94,#556B2F,monoclinic,"{""system"": ""monoclinic"", ""scale"": [0.7, 1.0, 1.3], ""optical"": {""transparent"": 0, ""refraction"": 0.0, ""birefringence"": 0.0}}"
Pilawite-(Y),Ca2Y2Al4(SiO4)4O2(OH)2,"{""Ca"": 2.0, ""Y"": 2.0, ""Al"": 4.0, ""Si"": 4.0, ""O"": 20.0, ""H"": 2.0}",800.28,#FFFFFF,monoclinic,"{""system"": ""monoclinic"", ""scale"": [0.7, 1.0, 1.3], ""optical"": {""transparent"": 1, ""refraction"": 1.5, ""birefringence"": 0.01}}"
Pilipenkoite,KCu(AsO4)·H2O,"{""K"": 1.0, ""Cu"": 1.0, ""As"": 1.0, ""O"": 5.0, ""H"": 2.0}",259.59,#FFFFFF,,"{""system"": """", ""scale"": [1.0, 1.0, 1.0], ""optical"": {""transparent"": 1, ""refraction"": 1.5, ""birefringence"": 0.01}}"
Pilsenite,Bi4Te3,"{""Bi"": 4.0, ""Te"": 3.0}",1218.72,#D2B48C,hexagonal,"{""system"": ""hexagonal"", ""scale"": [1.0, 1.0, 1.6], ""optical"": {""transparent"": 0, ""refraction"": 0.0, ""birefringence"": 0.0}}"
Pinalite,Pb3(WO4)OCl2,"{""Pb"": 3.0, ""W"": 1.0, ""O"": 5.0, ""Cl"": 2.0}",956.34,#FFFFFF,orthorhombic,"{""system"": ""orthorhombic"", ""scale"": [0.8, 1.0, 1.2], ""optical"": {""transparent"": 1, ""refraction"": 1.5, ""birefringence"": 0.01}}"
Pinchite,Hg5O4Cl2,"{""Hg"": 5.0, ""O"": 4.0, ""Cl"": 2.0}",1137.85,#FFFFFF,orthorhombic,"{""system"": ""orthorhombic"", ""scale"": [0.8, 1.0, 1.2], ""optical"": {""transparent"": 1, ""refraction"": 1.5, ""birefringence"": 0.01}}"
Pingguite,Bi6Te6+2O15,"{""Bi"": 6.0, ""Te"": 2.0, ""O"": 15.0}",1749.08,#D2B48C,orthorhombic,"{""system"": ""orthorhombic"", ""scale"": [0.8, 1.0, 1.2], ""optical"": {""transparent"": 0, ""refraction"": 0.0, ""birefringence"": 0.0}}"
Pinnoite,MgB2O(OH)6,"{""Mg"": 1.0, ""B"": 2.0, ""O"": 7.0, ""H"": 6.0}",163.98,#FFFFFF,tetragonal,"{""system"": ""tetragonal"", ""scale"": [1.0, 1.0, 1.4], ""optical"": {""transparent"": 1, ""refraction"": 1.5, ""birefringence"": 0.01}}"
Pintadoite,Ca2V5+2O7·9H2O,"{""Ca"": 2.0, ""V"": 2.0, ""O"": 16.0, ""H"": 18.0}",456.18,#FFFFFF,,"{""system"": """", ""scale"": [1.0, 1.0, 1.0], ""optical"": {""transparent"": 1, ""refraction"": 1.5, ""birefringence"": 0.01}}"
Piretite,Ca(UO2)3(Se4+O3)2(OH)4·4H2O,"{""Ca"": 1.0, ""U"": 3.0, ""O"": 20.0, ""Se"": 2.0, ""H"": 12.0}",1244.19,#FFFFFF,orthorhombic,"{""system"": ""orthorhombic"", ""scale"": [0.8, 1.0, 1.2], ""optical"": {""transparent"": 1, ""refraction"": 1.5, ""birefringence"": 0.01}}"
Pirssonite,Na2Ca(CO3)2·2H2O,"{""Na"": 2.0, ""Ca"": 1.0, ""C"": 2.0, ""O"": 8.0, ""H"": 4.0}",242.11,#FFFFFF,orthorhombic,"{""system"": ""orthorhombic"", ""scale"": [0.8, 1.0, 1.2], ""optical"": {""transparent"": 1, ""refraction"": 1.5, ""birefringence"": 0.01}}"
Pitiglianoite,K2Na6(Si6Al6)O24(SO4)·2H2O,"{""K"": 2.0, ""Na"": 6.0, ""Si"": 6.0, ""Al"": 6.0, ""O"": 30.0, ""S"": 1.0, ""H"": 4.0}",1062.65,#FFFFFF,hexagonal,"{""system"": ""hexagonal"", ""scale"": [1.0, 1.0, 1.6], ""optical"": {""transparent"": 1, ""refraction"": 1.5, ""birefringence"": 0.01}}"
Plagionite,Pb5Sb8S17,"{""Pb"": 5.0, ""Sb"": 8.0, ""S"": 17.0}",2555.1,#708090,monoclinic,"{""system"": ""monoclinic"", ""scale"": [0.7, 1.0, 1.3], ""optical"": {""transparent"": 0, ""refraction"": 0.0, ""birefringence"": 0.0}}"
Plancheite,Cu8(Si4O11)2(OH)4·H2O,"{""Cu"": 8.0, ""Si"": 8.0, ""O"": 27.0, ""H"": 6.0}",1171.17,#FFFFFF,orthorhombic,"{""system"": ""orthorhombic"", ""scale"": [0.8, 1.0, 1.2], ""optical"": {""transparent"": 1, ""refraction"": 1.5, ""birefringence"": 0.01}}"
Planerite,Al6(PO4)2(PO3OH)2(OH)8·4H2O,"{""Al"": 6.0, ""P"": 4.0, ""O"": 28.0, ""H"": 18.0}",751.9,#FFFFFF,triclinic,"{""system"": ""triclinic"", ""scale"": [0.7, 1.0, 1.3], ""optical"": {""transparent"": 1, ""refraction"": 1.5, ""birefringence"": 0.01}}"
Plasilite,Na(UO2)(SO4)(OH)·2H2O,"{""Na"": 1.0, ""U"": 1.0, ""O"": 9.0, ""S"": 1.0, ""H"": 5.0}",442.12,#FFFFFF,monoclinic,"{""system"": ""monoclinic"", ""scale"": [0.7, 1.0, 1.3], ""optical"": {""transparent"": 1, ""refraction"": 1.5, ""birefringence"": 0.01}}"
Platinum,Pt,"{""Pt"": 1.0}",195.08,#FFFFFF,cubic,"{""system"": ""cubic"", ""scale"": [1.0, 1.0, 1.0], ""optical"": {""transparent"": 1, ""refraction"": 1.5, ""birefringence"": 0.0}}"
Plattnerite,PbO2,"{""Pb"": 1.0, ""O"": 2.0}",239.2,#FFFFFF,tetragonal,"{""system"": ""tetragonal"", ""scale"": [1.0, 1.0, 1.4], ""optical"": {""transparent"": 1, ""refraction"": 1.5, ""birefringence"": 0.01}}"
Pliniusite,Ca5(VO4)3F,"{""Ca"": 5.0, ""V"": 3.0, ""O"": 12.0, ""F"": 1.0}",564.22,#FFFFFF,hexagonal,"{""system"": ""hexagonal"", ""scale"": [1.0, 1.0, 1.6], ""optical"": {""transparent"": 1, ""refraction"": 1.5, ""birefringence"": 0.01}}"
Plombierite,Ca4Si6O16(OH)2(H2O)2·(Ca·5H2O),"{""Ca"": 9.0, ""Si"": 6.0, ""O"": 45.0, ""H"": 56.0}",1305.71,#FFFFFF,monoclinic,"{""system"": ""monoclinic"", ""scale"": [0.7, 1.0, 1.3], ""optical"": {""transparent"": 1, ""refraction"": 1.5, ""birefringence"": 0.01}}"
Plumbogaidonnayite,PbZrSi3O9·2H2O,"{""Pb"": 1.0, ""Zr"": 1.0, ""Si"": 3.0, ""O"": 11.0, ""H"": 4.0}",562.72,#FFFFFF,orthorhombic,"{""system"": ""orthorhombic"", ""scale"": [0.8, 1.0, 1.2], ""optical"": {""transparent"": 1, ""refraction"": 1.5, ""birefringence"": 0.01}}"
Plumbogummite,PbAl3(PO4)(PO3OH)(OH)6,"{""Pb"": 1.0, ""Al"": 3.0, ""P"": 2.0, ""O"": 14.0, ""H"": 7.0}",581.14,#FFFFFF,hexagonal,"{""system"": ""hexagonal"", ""scale"": [1.0, 1.0, 1.6], ""optical"": {""transparent"": 1, ""refraction"": 1.5, ""birefringence"": 0.01}}"
Plumbojohntomaite,PbFe2+2Fe3+2(PO4)3(OH)3,"{""Pb"": 1.0, ""Fe"": 4.0, ""P"": 3.0, ""O"": 15.0, ""H"": 3.0}",766.53,#556B2F,monoclinic,"{""system"": ""monoclinic"", ""scale"": [0.7, 1.0, 1.3], ""optical"": {""transparent"": 0, ""refraction"": 0.0, ""birefringence"": 0.0}}"
Plumbonacrite,Pb5(CO3)3O(OH)2,"{""Pb"": 5.0, ""C"": 3.0, ""O"": 12.0, ""H"": 2.0}",1266.05,#FFFFFF,hexagonal,"{""system"": ""hexagonal"", ""scale"": [1.0, 1.0, 1.6], ""optical"": {""transparent"": 1, ""refraction"": 1.5, ""birefringence"": 0.01}}"
Plumbopalladinite,Pd3Pb2,"{""Pd"": 3.0, ""Pb"": 2.0}",733.66,#FFFFFF,hexagonal,"{""system"": ""hexagonal"", ""scale"": [1.0, 1.0, 1.6], ""optical"": {""transparent"": 1, ""refraction"": 1.5, ""birefringence"": 0.01}}"
Plumbophyllite,Pb2Si4O10·H2O,"{""Pb"": 2.0, ""Si"": 4.0, ""O"": 11.0, ""H"": 2.0}",704.78,#FFFFFF,orthorhombic,"{""system"": ""orthorhombic"", ""scale"": [0.8, 1.0, 1.2], ""optical"": {""transparent"": 1, ""refraction"": 1.5, ""birefringence"": 0.01}}"
Plumboselite,Pb3O2(SeO3),"{""Pb"": 3.0, ""O"": 5.0, ""Se"": 1.0}",780.56,#FFFFFF,orthorhombic,"{""system"": ""orthorhombic"", ""scale"": [0.8, 1.0, 1.2], ""optical"": {""transparent"": 1, ""refraction"": 1.5, ""birefringence"": 0.01}}"
Plumbotellurite,Pb(Te4+O3),"{""Pb"": 1.0, ""Te"": 1.0, ""O"": 3.0}",382.8,#FFFFFF,orthorhombic,"{""system"": ""orthorhombic"", ""scale"": [0.8, 1.0, 1.2], ""optical"": {""transparent"": 1, ""refraction"": 1.5, ""birefringence"": 0.01}}"
Plumbotsumite,Pb5Si4O8(OH)10,"{""Pb"": 5.0, ""Si"": 4.0, ""O"": 18.0, ""H"": 10.0}",1446.44,#FFFFFF,triclinic,"{""system"": ""triclinic"", ""scale"": [0.7, 1.0, 1.3], ""optical"": {""transparent"": 1, ""refraction"": 1.5, ""birefringence"": 0.01}}"
Plumosite,Pb2Sb2S5,"{""Pb"": 2.0, ""Sb"": 2.0, ""S"": 5.0}",818.22,#708090,,"{""system"": """", ""scale"": [1.0, 1.0, 1.0], ""optical"": {""transparent"": 0, ""refraction"": 0.0, ""birefringence"": 0.0}}"
Podlesnoite,Ca2Ba(CO3)2F2,"{""Ca"": 2.0, ""Ba"": 1.0, ""C"": 2.0, ""O"": 6.0, ""F"": 2.0}",375.51,#FFFFFF,orthorhombic,"{""system"": ""orthorhombic"", ""scale"": [0.8, 1.0, 1.2], ""optical"": {""transparent"": 1, ""refraction"": 1.5, ""birefringence"": 0.01}}"
Poellmannite,Ca6Al3(OH)18[Na(H2O)6](SO4)2·6H2O,"{""Ca"": 6.0, ""Al"": 3.0, ""O"": 38.0, ""H"": 42.0, ""Na"": 1.0, ""S"": 2.0}",1058.87,#FFFFFF,hexagonal,"{""system"": ""hexagonal"", ""scale"": [1.0, 1.0, 1.6], ""optical"": {""transparent"": 1, ""refraction"": 1.5, ""birefringence"": 0.01}}"
Pohlite,Pb7(IO3)(OH)4Cl9,"{""Pb"": 7.0, ""I"": 1.0, ""O"": 7.0, ""H"": 4.0, ""Cl"": 9.0}",2012.38,#FFFFFF,triclinic,"{""system"": ""triclinic"", ""scale"": [0.7, 1.0, 1.3], ""optical"": {""transparent"": 1, ""refraction"": 1.5, ""birefringence"": 0.01}}"
Poirierite,Mg2SiO4,"{""Mg"": 2.0, ""Si"": 1.0, ""O"": 4.0}",140.71,#FFFFFF,orthorhombic,"{""system"": ""orthorhombic"", ""scale"": [0.8, 1.0, 1.2], ""optical"": {""transparent"": 1, ""refraction"": 1.5, ""birefringence"": 0.01}}"
Poitevinite,Cu(SO4)·H2O,"{""Cu"": 1.0, ""S"": 1.0, ""O"": 5.0, ""H"": 2.0}",177.63,#FFFFFF,triclinic,"{""system"": ""triclinic"", ""scale"": [0.7, 1.0, 1.3], ""optical"": {""transparent"": 1, ""refraction"": 1.5, ""birefringence"": 0.01}}"
Pokrovskite,Mg2(CO3)(OH)2,"{""Mg"": 2.0, ""C"": 1.0, ""O"": 5.0, ""H"": 2.0}",142.65,#FFFFFF,monoclinic,"{""system"": ""monoclinic"", ""scale"": [0.7, 1.0, 1.3], ""optical"": {""transparent"": 1, ""refraction"": 1.5, ""birefringence"": 0.01}}"
Polekhovskyite,MoNiP2,"{""Mo"": 1.0, ""Ni"": 1.0, ""P"": 2.0}",216.58,#7FFF00,hexagonal,"{""system"": ""hexagonal"", ""scale"": [1.0, 1.0, 1.6], ""optical"": {""transparent"": 0, ""refraction"": 0.0, ""birefringence"": 0.0}}"
Polezhaevaite-(Ce),NaSrCeF6,"{""Na"": 1.0, ""Sr"": 1.0, ""Ce"": 1.0, ""F"": 6.0}",364.73,#FFFFFF,hexagonal,"{""system"": ""hexagonal"", ""scale"": [1.0, 1.0, 1.6], ""optical"": {""transparent"": 1, ""refraction"": 1.5, ""birefringence"": 0.01}}"
Polkanovite,Rh12As7,"{""Rh"": 12.0, ""As"": 7.0}",1759.36,#808080,hexagonal,"{""system"": ""hexagonal"", ""scale"": [1.0, 1.0, 1.6], ""optical"": {""transparent"": 0, ""refraction"": 0.0, ""birefringence"": 0.0}}"
Polloneite,AgPb46As26Sb23S120,"{""Ag"": 1.0, ""Pb"": 46.0, ""As"": 26.0, ""Sb"": 23.0, ""S"": 120.0}",18234.67,#708090,monoclinic,"{""system"": ""monoclinic"", ""scale"": [0.7, 1.0, 1.3], ""optical"": {""transparent"": 0, ""refraction"": 0.0, ""birefringence"": 0.0}}"
Polyarsite,Na7CaMgCu2(AsO4)4F2Cl,"{""Na"": 7.0, ""Ca"": 1.0, ""Mg"": 1.0, ""Cu"": 2.0, ""As"": 4.0, ""O"": 16.0, ""F"": 2.0, ""Cl"": 1.0}",981.55,#FFFFFF,monoclinic,"{""system"": ""monoclinic"", ""scale"": [0.7, 1.0, 1.3], ""optical"": {""transparent"": 1, ""refraction"": 1.5, ""birefringence"": 0.01}}"
Polydymite,Ni2+Ni3+2S4,"{""Ni"": 3.0, ""S"": 4.0}",304.31,#A9A9A9,cubic,"{""system"": ""cubic"", ""scale"": [1.0, 1.0, 1.0], ""optical"": {""transparent"": 0, ""refraction"": 0.0, ""birefringence"": 0.0}}"
Polyhalite,K2Ca2Mg(SO4)4·2H2O,"{""K"": 2.0, ""Ca"": 2.0, ""Mg"": 1.0, ""S"": 4.0, ""O"": 18.0, ""H"": 4.0}",602.94,#FFFFFF,triclinic,"{""system"": ""triclinic"", ""scale"": [0.7, 1.0, 1.3], ""optical"": {""transparent"": 1, ""refraction"": 1.5, ""birefringence"": 0.01}}"
Polylithionite,KLi2AlSi4O10F2,"{""K"": 1.0, ""Li"": 2.0, ""Al"": 1.0, ""Si"": 4.0, ""O"": 10.0, ""F"": 2.0}",390.32,#FFFFFF,monoclinic,"{""system"": ""monoclinic"", ""scale"": [0.7, 1.0, 1.3], ""optical"": {""transparent"": 1, ""refraction"": 1.5, ""birefringence"": 0.01}}"
Polyphite,Na6(Na4Ca2)2Na2Ti2Na2Ti2(Si2O7)2(PO4)6O4F4,"{""Na"": 18.0, ""Ca"": 4.0, ""Ti"": 4.0, ""Si"": 4.0, ""O"": 42.0, ""P"": 6.0, ""F"": 4.0}",1811.8,#FFFFFF,triclinic,"{""system"": ""triclinic"", ""scale"": [0.7, 1.0, 1.3], ""optical"": {""transparent"": 1, ""refraction"": 1.5, ""birefringence"": 0.01}}"
Pomite,Ca3[V4+5V5+10O37(CO3)]·37H2O,"{""Ca"": 3.0, ""V"": 15.0, ""O"": 77.0, ""C"": 1.0, ""H"": 74.0}",2202.94,#FFFFFF,triclinic,"{""system"": ""triclinic"", ""scale"": [0.7, 1.0, 1.3], ""optical"": {""transparent"": 1, ""refraction"": 1.5, ""birefringence"": 0.01}}"
Ponomarevite,K4Cu4OCl10,"{""K"": 4.0, ""Cu"": 4.0, ""O"": 1.0, ""Cl"": 10.0}",781.1,#FFFFFF,monoclinic,"{""system"": ""monoclinic"", ""scale"": [0.7, 1.0, 1.3], ""optical"": {""transparent"": 1, ""refraction"": 1.5, ""birefringence"": 0.01}}"
Popovite,Cu5O2(AsO4)2,"{""Cu"": 5.0, ""O"": 10.0, ""As"": 2.0}",627.59,#00BFFF,triclinic,"{""system"": ""triclinic"", ""scale"": [0.7, 1.0, 1.3], ""optical"": {""transparent"": 0, ""refraction"": 0.0, ""birefringence"": 0.0}}"
Popugaevaite,Ca3[B5O6(OH)6]FCl2·8H2O,"{""Ca"": 3.0, ""B"": 5.0, ""O"": 20.0, ""H"": 22.0, ""F"": 1.0, ""Cl"": 2.0}",606.37,#FFFFFF,monoclinic,"{""system"": ""monoclinic"", ""scale"": [0.7, 1.0, 1.3], ""optical"": {""transparent"": 1, ""refraction"": 1.5, ""birefringence"": 0.01}}"
Portlandite,Ca(OH)2,"{""Ca"": 1.0, ""O"": 2.0, ""H"": 2.0}",74.1,#FFFFFF,hexagonal,"{""system"": ""hexagonal"", ""scale"": [1.0, 1.0, 1.6], ""optical"": {""transparent"": 1, ""refraction"": 1.5, ""birefringence"": 0.01}}"
Posnjakite,Cu4(SO4)(OH)6·H2O,"{""Cu"": 4.0, ""S"": 1.0, ""O"": 11.0, ""H"": 8.0}",470.32,#FFFFFF,monoclinic,"{""system"": ""monoclinic"", ""scale"": [0.7, 1.0, 1.3], ""optical"": {""transparent"": 1, ""refraction"": 1.5, ""birefringence"": 0.01}}"
Postite,Mg(H2O)6Al2(OH)2(H2O)8(V10O28)·13H2O,"{""Mg"": 1.0, ""H"": 56.0, ""O"": 57.0, ""Al"": 2.0, ""V"": 10.0}",1556.12,#FFFFFF,orthorhombic,"{""system"": ""orthorhombic"", ""scale"": [0.8, 1.0, 1.2], ""optical"": {""transparent"": 1, ""refraction"": 1.5, ""birefringence"": 0.01}}"
Potarite,PdHg,"{""Pd"": 1.0, ""Hg"": 1.0}",307.01,#FFFFFF,tetragonal,"{""system"": ""tetragonal"", ""scale"": [1.0, 1.0, 1.4], ""optical"": {""transparent"": 1, ""refraction"": 1.5, ""birefringence"": 0.01}}"
Potassic-arfvedsonite,KNa2(Fe2+4Fe3+)Si8O22(OH)2,"{""K"": 1.0, ""Na"": 2.0, ""Fe"": 5.0, ""Si"": 8.0, ""O"": 24.0, ""H"": 2.0}",975.07,#556B2F,monoclinic,"{""system"": ""monoclinic"", ""scale"": [0.7, 1.0, 1.3], ""optical"": {""transparent"": 0, ""refraction"": 0.0, ""birefringence"": 0.0}}"
Potassic-chloro-hastingsite,KCa2(Fe2+4Fe3+)(Si6Al2)O22Cl2,"{""K"": 1.0, ""Ca"": 2.0, ""Fe"": 5.0, ""Si"": 6.0, ""Al"": 2.0, ""O"": 22.0, ""Cl"": 2.0}",1043.91,#556B2F,monoclinic,"{""system"": ""monoclinic"", ""scale"": [0.7, 1.0, 1.3], ""optical"": {""transparent"": 0, ""refraction"": 0.0, ""birefringence"": 0.0}}"
Potassic-chloro-pargasite,KCa2(Mg4Al)(Si6Al2)O22Cl2,"{""K"": 1.0, ""Ca"": 2.0, ""Mg"": 4.0, ""Al"": 3.0, ""Si"": 6.0, ""O"": 22.0, ""Cl"": 2.0}",888.88,#FFFFFF,monoclinic,"{""system"": ""monoclinic"", ""scale"": [0.7, 1.0, 1.3], ""optical"": {""transparent"": 1, ""refraction"": 1.5, ""birefringence"": 0.01}}"
Potassic-ferri-leakeite,KNa2(Mg2Fe3+2Li)Si8O22(OH)2,"{""K"": 1.0, ""Na"": 2.0, ""Mg"": 2.0, ""Fe"": 2.0, ""Li"": 1.0, ""Si"": 8.0, ""O"": 24.0, ""H"": 2.0}",863.08,#556B2F,monoclinic,"{""system"": ""monoclinic"", ""scale"": [0.7, 1.0, 1.3], ""optical"": {""transparent"": 0, ""refraction"": 0.0, ""birefringence"": 0.0}}"
Potassic-ferro-ferri-sadanagaite,KCa2(Fe2+3Fe3+2)(Si5Al3)O22(OH)2,"{""K"": 1.0, ""Ca"": 2.0, ""Fe"": 5.0, ""Si"": 5.0, ""Al"": 3.0, ""O"": 24.0, ""H"": 2.0}",1005.92,#556B2F,monoclinic,"{""system"": ""monoclinic"", ""scale"": [0.7, 1.0, 1.3], ""optical"": {""transparent"": 0, ""refraction"": 0.0, ""birefringence"": 0.0}}"
Potassic-ferro-ferri-taramite,K(NaCa)(Fe2+3Fe3+2)(Si6Al2)O22(OH)2,"{""K"": 1.0, ""Na"": 1.0, ""Ca"": 1.0, ""Fe"": 5.0, ""Si"": 6.0, ""Al"": 2.0, ""O"": 24.0, ""H"": 2.0}",989.94,#556B2F,,"{""system"": """", ""scale"": [1.0, 1.0, 1.0], ""optical"": {""transparent"": 0, ""refraction"": 0.0, ""birefringence"": 0.0}}"
Potassic-ferro-pargasite,KCa2(Fe2+4Al)(Si6Al2)O22(OH)2,"{""K"": 1.0, ""Ca"": 2.0, ""Fe"": 4.0, ""Al"": 3.0, ""Si"": 6.0, ""O"": 24.0, ""H"": 2.0}",978.16,#556B2F,monoclinic,"{""system"": ""monoclinic"", ""scale"": [0.7, 1.0, 1.3], ""optical"": {""transparent"": 0, ""refraction"": 0.0, ""birefringence"": 0.0}}"
Potassic-ferro-sadanagaite,KCa2(Fe2+3Al2)(Si5Al3)O22(OH)2,"{""K"": 1.0, ""Ca"": 2.0, ""Fe"": 3.0, ""Al"": 5.0, ""Si"": 5.0, ""O"": 24.0, ""H"": 2.0}",948.18,#556B2F,,"{""system"": """", ""scale"": [1.0, 1.0, 1.0], ""optical"": {""transparent"": 0, ""refraction"": 0.0, ""birefringence"": 0.0}}"
Potassic-ferro-taramite,K(NaCa)(Fe2+3Al2)(Si6Al2)O22(OH)2,"{""K"": 1.0, ""Na"": 1.0, ""Ca"": 1.0, ""Fe"": 3.0, ""Al"": 4.0, ""Si"": 6.0, ""O"": 24.0, ""H"": 2.0}",932.2,#556B2F,monoclinic,"{""system"": ""monoclinic"", ""scale"": [0.7, 1.0, 1.3], ""optical"": {""transparent"": 0, ""refraction"": 0.0, ""birefringence"": 0.0}}"
Potassic-fluoro-hastingsite,KCa2(Fe2+4Fe3+)(Si6Al2)O22F2,"{""K"": 1.0, ""Ca"": 2.0, ""Fe"": 5.0, ""Si"": 6.0, ""Al"": 2.0, ""O"": 22.0, ""F"": 2.0}",1011.01,#556B2F,monoclinic,"{""system"": ""monoclinic"", ""scale"": [0.7, 1.0, 1.3], ""optical"": {""transparent"": 0, ""refraction"": 0.0, ""birefringence"": 0.0}}"
Potassic-fluoro-pargasite,KCa2(Mg4Al)Si6Al2O22F2,"{""K"": 1.0, ""Ca"": 2.0, ""Mg"": 4.0, ""Al"": 3.0, ""Si"": 6.0, ""O"": 22.0, ""F"": 2.0}",855.98,#FFFFFF,monoclinic,"{""system"": ""monoclinic"", ""scale"": [0.7, 1.0, 1.3], ""optical"": {""transparent"": 1, ""refraction"": 1.5, ""birefringence"": 0.01}}"
Potassic-fluoro-richterite,K(NaCa)Mg5Si8O22F2,"{""K"": 1.0, ""Na"": 1.0, ""Ca"": 1.0, ""Mg"": 5.0, ""Si"": 8.0, ""O"": 22.0, ""F"": 2.0}",838.44,#FFFFFF,monoclinic,"{""system"": ""monoclinic"", ""scale"": [0.7, 1.0, 1.3], ""optical"": {""transparent"": 1, ""refraction"": 1.5, ""birefringence"": 0.01}}"