name,formula,elements,density,color,crystal
Gadolinite-(Ce),Ce2Fe2+Be2O2(SiO4)2,"{""Ce"": 2.0, ""Fe"": 1.0, ""Be"": 2.0, ""O"": 10.0, ""Si"": 2.0}",570.2694,#556B2F,monoclinic
Gadolinite-(Nd),Nd2Fe2+Be2O2(SiO4)2,"{""Nd"": 2.0, ""Fe"": 1.0, ""Be"": 2.0, ""O"": 10.0, ""Si"": 2.0}",578.5094,#556B2F,monoclinic
Gadolinite-(Y),Y2Fe2+Be2O2(SiO4)2,"{""Y"": 2.0, ""Fe"": 1.0, ""Be"": 2.0, ""O"": 10.0, ""Si"": 2.0}",467.8414,#556B2F,monoclinic
Gagarinite-(Ce),NaCaCeF6,"{""Na"": 1.0, ""Ca"": 1.0, ""Ce"": 1.0, ""F"": 6.0}",317.176,#FFFFFF,hexagonal
Gagarinite-(Y),NaCaYF6,"{""Na"": 1.0, ""Ca"": 1.0, ""Y"": 1.0, ""F"": 6.0}",265.962,#FFFFFF,hexagonal
Gaidonnayite,Na2ZrSi3O9·2H2O,"{""Na"": 2.0, ""Zr"": 1.0, ""Si"": 3.0, ""O"": 11.0, ""H"": 4.0}",401.48,#FFFFFF,orthorhombic
Galeaclolusite,Al6(AsO4)3(OH)9(H2O)4·8H2O,"{""Al"": 6.0, ""As"": 3.0, ""O"": 33.0, ""H"": 33.0}",947.889,#FFFFFF,orthorhombic
Galeite,Na15(SO4)5ClF4,"{""Na"": 15.0, ""S"": 5.0, ""O"": 20.0, ""Cl"": 1.0, ""F"": 4.0}",936.572,#FFFFFF,hexagonal
Galena,PbS,"{""Pb"": 1.0, ""S"": 1.0}",239.26,#708090,cubic
Galenobismutite,PbBi2S4,"{""Pb"": 1.0, ""Bi"": 2.0, ""S"": 4.0}",753.4,#708090,orthorhombic
Galgenbergite-(Ce),CaCe2(CO3)4·H2O,"{""Ca"": 1.0, ""Ce"": 2.0, ""C"": 4.0, ""O"": 13.0, ""H"": 2.0}",578.365,#FFFFFF,triclinic
Galileiite,NaFe2+4(PO4)3,"{""Na"": 1.0, ""Fe"": 4.0, ""P"": 3.0, ""O"": 12.0}",531.28,#556B2F,hexagonal
Galkhaite,(Hg5Cu)CsAs4S12,"{""Hg"": 5.0, ""Cu"": 1.0, ""Cs"": 1.0, ""As"": 4.0, ""S"": 12.0}",1883.814,#FFD700,cubic
Galliskiite,Ca4Al2(PO4)2F8·5H2O,"{""Ca"": 4.0, ""Al"": 2.0, ""P"": 2.0, ""O"": 13.0, ""F"": 8.0, ""H"": 10.0}",646.275,#FFFFFF,triclinic
Gallite,CuGaS2,"{""Cu"": 1.0, ""Ga"": 1.0, ""S"": 2.0}",197.389,#A9A9A9,tetragonal
Gallobeudantite,PbGa3(AsO4)(SO4)(OH)6,"{""Pb"": 1.0, ""Ga"": 3.0, ""As"": 1.0, ""O"": 14.0, ""S"": 1.0, ""H"": 6.0}",753.385,#FFFFFF,hexagonal
Galuskinite,Ca7(SiO4)3(CO3),"{""Ca"": 7.0, ""Si"": 3.0, ""O"": 15.0, ""C"": 1.0}",616.797,#FFFFFF,monoclinic
Gamagarite,Ba2Fe3+(VO4)2(OH),"{""Ba"": 2.0, ""Fe"": 1.0, ""V"": 2.0, ""O"": 9.0, ""H"": 1.0}",577.388,#556B2F,monoclinic
Gananite,BiF3,"{""Bi"": 1.0, ""F"": 3.0}",265.974,#D2B48C,cubic
Ganomalite,Pb9Ca6(Si2O7)4(SiO4)O,"{""Pb"": 9.0, ""Ca"": 6.0, ""Si"": 9.0, ""O"": 33.0}",2886.0,#FFFFFF,hexagonal
Gaotaiite,Ir3Te8,"{""Ir"": 3.0, ""Te"": 8.0}",1597.46,#FFFFFF,cubic
Garavellite,FeSbBiS4,"{""Fe"": 1.0, ""Sb"": 1.0, ""Bi"": 1.0, ""S"": 4.0}",514.825,#DAA520,orthorhombic
Garmite,CsLiMg2(Si4O10)F2,"{""Cs"": 1.0, ""Li"": 1.0, ""Mg"": 2.0, ""Si"": 4.0, ""O"": 10.0, ""F"": 2.0}",498.786,#FFFFFF,monoclinic
Garrelsite,NaBa3B7Si2O16(OH)4,"{""Na"": 1.0, ""Ba"": 3.0, ""B"": 7.0, ""Si"": 2.0, ""O"": 20.0, ""H"": 4.0}",890.832,#FFFFFF,monoclinic
Garronite-Ca,Ca3(Al6Si10O32)·14H2O,"{""Ca"": 3.0, ""Al"": 6.0, ""Si"": 10.0, ""O"": 46.0, ""H"": 28.0}",1327.154,#FFFFFF,tetragonal
Gartrellite,PbCuFe3+(AsO4)2(OH)·H2O,"{""Pb"": 1.0, ""Cu"": 1.0, ""Fe"": 1.0, ""As"": 2.0, ""O"": 10.0, ""H"": 3.0}",639.449,#556B2F,triclinic
Garyansellite,Mg2Fe3+(PO4)2(OH)·2H2O,"{""Mg"": 2.0, ""Fe"": 1.0, ""P"": 2.0, ""O"": 11.0, ""H"": 5.0}",347.432,#556B2F,orthorhombic
Gasparite-(Ce),Ce(AsO4),"{""Ce"": 1.0, ""As"": 1.0, ""O"": 4.0}",279.038,#808080,monoclinic
Gasparite-(La),La(AsO4),"{""La"": 1.0, ""As"": 1.0, ""O"": 4.0}",277.828,#808080,monoclinic
Gaspeite,Ni(CO3),"{""Ni"": 1.0, ""C"": 1.0, ""O"": 3.0}",118.701,#7FFF00,hexagonal
Gatewayite,Ca6(As3+V4+3V5+9As5+6O51)·31H2O,"{""Ca"": 6.0, ""As"": 7.0, ""V"": 12.0, ""O"": 82.0, ""H"": 62.0}",2750.64,#FFFFFF,monoclinic
Gatumbaite,CaAl2(PO4)2(OH)2·H2O,"{""Ca"": 1.0, ""Al"": 2.0, ""P"": 2.0, ""O"": 11.0, ""H"": 4.0}",336.011,#FFFFFF,monoclinic
Gauthierite,KPb[(UO2)7O5(OH)7]·8H2O,"{""K"": 1.0, ""Pb"": 1.0, ""U"": 7.0, ""O"": 34.0, ""H"": 23.0}",2479.658,#FFFFFF,monoclinic
Gaylussite,Na2Ca(CO3)2·5H2O,"{""Na"": 2.0, ""Ca"": 1.0, ""C"": 2.0, ""O"": 11.0, ""H"": 10.0}",296.149,#FFFFFF,monoclinic
Gazeevite,BaCa6(SiO4)2(SO4)2O,"{""Ba"": 1.0, ""Ca"": 6.0, ""Si"": 2.0, ""O"": 17.0, ""S"": 2.0}",770.071,#FFFFFF,hexagonal
Gearksutite,CaAlF4(OH)·H2O,"{""Ca"": 1.0, ""Al"": 1.0, ""F"": 4.0, ""O"": 2.0, ""H"": 3.0}",178.074,#FFFFFF,triclinic
Gebhardite,Pb8As3+4O11Cl6,"{""Pb"": 8.0, ""As"": 4.0, ""O"": 11.0, ""Cl"": 6.0}",2345.977,#FFFFFF,monoclinic
Geerite,Cu8S5,"{""Cu"": 8.0, ""S"": 5.0}",668.668,#A9A9A9,cubic
Gehlenite,Ca2Al(SiAl)O7,"{""Ca"": 2.0, ""Al"": 2.0, ""Si"": 1.0, ""O"": 7.0}",274.198,#FFFFFF,tetragonal
Geikielite,MgTiO3,"{""Mg"": 1.0, ""Ti"": 1.0, ""O"": 3.0}",120.169,#FFFFFF,hexagonal
Geminite,Cu2+(AsO3OH)·H2O,"{""Cu"": 1.0, ""As"": 1.0, ""O"": 5.0, ""H"": 3.0}",221.487,#FFFFFF,triclinic
Gengenbachite,KFe3(H2PO4)2(HPO4)4·6H2O,"{""K"": 1.0, ""Fe"": 3.0, ""H"": 20.0, ""P"": 6.0, ""O"": 30.0}",892.607,#556B2F,hexagonal
Genkinite,Pt4Sb3,"{""Pt"": 4.0, ""Sb"": 3.0}",1145.6,#A9A9A9,tetragonal
Geocronite,Pb14Sb6S23,"{""Pb"": 14.0, ""Sb"": 6.0, ""S"": 23.0}",4368.74,#708090,monoclinic
Georgbokiite,Cu5O2(Se4+O3)2Cl2,"{""Cu"": 5.0, ""O"": 8.0, ""Se"": 2.0, ""Cl"": 2.0}",674.564,#FFFFFF,monoclinic
Georgechaoite,KNaZrSi3O9·2H2O,"{""K"": 1.0, ""Na"": 1.0, ""Zr"": 1.0, ""Si"": 3.0, ""O"": 11.0, ""H"": 4.0}",417.588,#FFFFFF,orthorhombic
George-ericksenite,Na6CaMg(IO3)6(CrO4)2·12H2O,"{""Na"": 6.0, ""Ca"": 1.0, ""Mg"": 1.0, ""I"": 6.0, ""O"": 38.0, ""Cr"": 2.0, ""H"": 24.0}",1699.869,#FFFFFF,monoclinic
Georgerobinsonite,Pb4(CrO4)2(OH)2FCl,"{""Pb"": 4.0, ""Cr"": 2.0, ""O"": 10.0, ""H"": 2.0, ""F"": 1.0, ""Cl"": 1.0}",1149.246,#FFFFFF,orthorhombic
Georgiadesite,Pb4(As3+O3)Cl4(OH),"{""Pb"": 4.0, ""As"": 1.0, ""O"": 4.0, ""Cl"": 4.0, ""H"": 1.0}",1110.526,#FFFFFF,monoclinic
Gerhardtite,Cu2(NO3)(OH)3,"{""Cu"": 2.0, ""N"": 1.0, ""O"": 6.0, ""H"": 3.0}",240.117,#FFFFFF,orthorhombic
Germanite,Cu13Fe2Ge2S16,"{""Cu"": 13.0, ""Fe"": 2.0, ""Ge"": 2.0, ""S"": 16.0}",1596.008,#DAA520,cubic
Germanocolusite,Cu13VGe3S16,"{""Cu"": 13.0, ""V"": 1.0, ""Ge"": 3.0, ""S"": 16.0}",1607.89,#A9A9A9,cubic
Gersdorffite,NiAsS,"{""Ni"": 1.0, ""As"": 1.0, ""S"": 1.0}",165.675,#FFD700,cubic
Geschieberite,K2(UO2)(SO4)2·2H2O,"{""K"": 2.0, ""U"": 1.0, ""O"": 12.0, ""S"": 2.0, ""H"": 4.0}",576.366,#FFFFFF,orthorhombic
Getchellite,SbAsS3,"{""Sb"": 1.0, ""As"": 1.0, ""S"": 3.0}",292.862,#FFD700,monoclinic
Geuerite,Ag2Tl4Pb4As22S40,"{""Ag"": 2.0, ""Tl"": 4.0, ""Pb"": 4.0, ""As"": 22.0, ""S"": 40.0}",4792.744,#708090,monoclinic
Geversite,PtSb2,"{""Pt"": 1.0, ""Sb"": 2.0}",438.6,#A9A9A9,cubic
Ghiaraite,CaCl2·4H2O,"{""Ca"": 1.0, ""Cl"": 2.0, ""H"": 8.0, ""O"": 4.0}",183.038,#FFFFFF,triclinic
Giacovazzoite,K5Fe3+3O(SO4)6·10H2O,"{""K"": 5.0, ""Fe"": 3.0, ""O"": 35.0, ""S"": 6.0, ""H"": 20.0}",1135.51,#556B2F,monoclinic
Gibbsite,Al(OH)3,"{""Al"": 1.0, ""O"": 3.0, ""H"": 3.0}",78.003,#FFFFFF,monoclinic
Gilalite,Cu5Si6O17·7H2O,"{""Cu"": 5.0, ""Si"": 6.0, ""O"": 24.0, ""H"": 14.0}",884.328,#FFFFFF,monoclinic
Gillardite,Cu3NiCl2(OH)6,"{""Cu"": 3.0, ""Ni"": 1.0, ""Cl"": 2.0, ""O"": 6.0, ""H"": 6.0}",422.273,#FFFFFF,hexagonal
Gillespite,BaFe2+Si4O10,"{""Ba"": 1.0, ""Fe"": 1.0, ""Si"": 4.0, ""O"": 10.0}",465.505,#556B2F,orthorhombic
Gilmarite,Cu2+3(AsO4)(OH)3,"{""Cu"": 3.0, ""As"": 1.0, ""O"": 7.0, ""H"": 3.0}",380.577,#FFFFFF,triclinic
Giniite,Fe2+Fe3+4(PO4)4(OH)2·2H2O,"{""Fe"": 5.0, ""P"": 4.0, ""O"": 20.0, ""H"": 6.0}",729.149,#556B2F,monoclinic
Ginorite,Ca2B14O20(OH)6·5H2O,"{""Ca"": 2.0, ""B"": 14.0, ""O"": 31.0, ""H"": 16.0}",743.593,#FFFFFF,
Giorgiosite,Mg5(CO3)4(OH)2·5H2O,"{""Mg"": 5.0, ""C"": 4.0, ""O"": 19.0, ""H"": 12.0}",485.646,#FFFFFF,
Girvasite,NaCa2Mg3(PO4)3(CO3)(H2O)6,"{""Na"": 1.0, ""Ca"": 2.0, ""Mg"": 3.0, ""P"": 3.0, ""O"": 21.0, ""C"": 1.0, ""H"": 12.0}",629.069,#FFFFFF,monoclinic
Gismondine-Ca,Ca2(Si4Al4)O16·8H2O,"{""Ca"": 2.0, ""Si"": 4.0, ""Al"": 4.0, ""O"": 24.0, ""H"": 16.0}",700.528,#FFFFFF,monoclinic
Gismondine-Sr,Sr4(Si8Al8O32)·9H2O,"{""Sr"": 4.0, ""Si"": 8.0, ""Al"": 8.0, ""O"": 41.0, ""H"": 18.0}",1465.119,#FFFFFF,orthorhombic
Gittinsite,CaZrSi2O7,"{""Ca"": 1.0, ""Zr"": 1.0, ""Si"": 2.0, ""O"": 7.0}",299.465,#FFFFFF,monoclinic
Giuscaite,Ag2Tl4Pb4As20Sb2S40,"{""Ag"": 2.0, ""Tl"": 4.0, ""Pb"": 4.0, ""As"": 20.0, ""Sb"": 2.0, ""S"": 40.0}",4886.42,#708090,monoclinic
Giuseppettite,Na42K16Ca6Si48Al48O192(SO4)10Cl2·5H2O,"{""Na"": 42.0, ""K"": 16.0, ""Ca"": 6.0, ""Si"": 48.0, ""Al"": 48.0, ""O"": 237.0, ""S"": 10.0, ""Cl"": 2.0, ""H"": 10.0}",8668.175,#FFFFFF,hexagonal
Gladite,CuPbBi5S9,"{""Cu"": 1.0, ""Pb"": 1.0, ""Bi"": 5.0, ""S"": 9.0}",1604.186,#708090,orthorhombic
Gladiusite,Fe3+2Fe2+4(PO4)(OH)11·H2O,"{""Fe"": 6.0, ""P"": 1.0, ""O"": 16.0, ""H"": 13.0}",635.132,#556B2F,monoclinic
Glauberite,Na2Ca(SO4)2,"{""Na"": 2.0, ""Ca"": 1.0, ""S"": 2.0, ""O"": 8.0}",278.17,#FFFFFF,monoclinic
Glaukosphaerite,CuNi(CO3)(OH)2,"{""Cu"": 1.0, ""Ni"": 1.0, ""C"": 1.0, ""O"": 5.0, ""H"": 2.0}",216.261,#FFFFFF,monoclinic
Glecklerite,Na(C2H3O3),"{""Na"": 1.0, ""C"": 2.0, ""H"": 3.0, ""O"": 3.0}",98.033,#FFFFFF,orthorhombic
Glushinskite,Mg(C2O4)·2H2O,"{""Mg"": 1.0, ""C"": 2.0, ""O"": 6.0, ""H"": 4.0}",148.353,#FFFFFF,monoclinic
Gmelinite-Ca,Ca2(Si8Al4)O24·11H2O,"{""Ca"": 2.0, ""Si"": 8.0, ""Al"": 4.0, ""O"": 35.0, ""H"": 22.0}",994.905,#FFFFFF,hexagonal
Gmelinite-K,K4(Si8Al4)O24·11H2O,"{""K"": 4.0, ""Si"": 8.0, ""Al"": 4.0, ""O"": 35.0, ""H"": 22.0}",1071.141,#FFFFFF,hexagonal
Gmelinite-Na,Na4(Si8Al4)O24·11H2O,"{""Na"": 4.0, ""Si"": 8.0, ""Al"": 4.0, ""O"": 35.0, ""H"": 22.0}",1006.709,#FFFFFF,hexagonal
Gobbinsite,Na5(Si11Al5)O32·11H2O,"{""Na"": 5.0, ""Si"": 11.0, ""Al"": 5.0, ""O"": 43.0, ""H"": 22.0}",1268.928,#FFFFFF,orthorhombic
Gobelinite,CoCu4(SO4)2(OH)6·6H2O,"{""Co"": 1.0, ""Cu"": 4.0, ""S"": 2.0, ""O"": 20.0, ""H"": 18.0}",715.361,#FFFFFF,monoclinic
Godovikovite,(NH4)Al(SO4)2,"{""N"": 1.0, ""H"": 4.0, ""Al"": 1.0, ""S"": 2.0, ""O"": 8.0}",237.133,#FFFFFF,hexagonal
Goedkenite,Sr2Al(PO4)2(OH),"{""Sr"": 2.0, ""Al"": 1.0, ""P"": 2.0, ""O"": 9.0, ""H"": 1.0}",409.169,#FFFFFF,monoclinic
Goethite,FeO(OH),"{""Fe"": 1.0, ""O"": 2.0, ""H"": 1.0}",88.851,#8B4513,orthorhombic
Gold,Au,"{""Au"": 1.0}",196.97,#FFD700,cubic
Goldichite,KFe3+(SO4)2·4H2O,"{""K"": 1.0, ""Fe"": 1.0, ""S"": 2.0, ""O"": 12.0, ""H"": 8.0}",359.115,#556B2F,monoclinic
Goldmanite,Ca3V3+2(SiO4)3,"{""Ca"": 3.0, ""V"": 2.0, ""Si"": 3.0, ""O"": 12.0}",498.361,#FFFFFF,cubic
Goldquarryite,CuCd2Al3(PO4)4F3·10H2O,"{""Cu"": 1.0, ""Cd"": 2.0, ""Al"": 3.0, ""P"": 4.0, ""O"": 26.0, ""F"": 3.0, ""H"": 20.0}",986.336,#FFFFFF,triclinic
Goldschmidtite,KNbO3,"{""K"": 1.0, ""Nb"": 1.0, ""O"": 3.0}",180.001,#FFFFFF,cubic
Golyshevite,Na10Ca9Zr3Fe2SiNb(Si3O9)2(Si9O27)2(OH)3(CO3)·H2O,"{""Na"": 10.0, ""Ca"": 9.0, ""Zr"": 3.0, ""Fe"": 2.0, ""Si"": 25.0, ""Nb"": 1.0, ""O"": 79.0, ""H"": 5.0, ""C"": 1.0}",3051.967,#556B2F,hexagonal
Goosecreekite,Ca(Si6Al2)O16·5H2O,"{""Ca"": 1.0, ""Si"": 6.0, ""Al"": 2.0, ""O"": 21.0, ""H"": 10.0}",608.611,#FFFFFF,monoclinic
Gorceixite,BaAl3(PO4)(PO3OH)(OH)6,"{""Ba"": 1.0, ""Al"": 3.0, ""P"": 2.0, ""O"": 14.0, ""H"": 7.0}",511.266,#FFFFFF,hexagonal
Gordonite,MgAl2(PO4)2(OH)2·8H2O,"{""Mg"": 1.0, ""Al"": 2.0, ""P"": 2.0, ""O"": 18.0, ""H"": 18.0}",446.343,#FFFFFF,triclinic
Gorerite,CaAlFe3+11O19,"{""Ca"": 1.0, ""Al"": 1.0, ""Fe"": 11.0, ""O"": 19.0}",985.336,#556B2F,hexagonal
Gorgeyite,K2Ca5(SO4)6·H2O,"{""K"": 2.0, ""Ca"": 5.0, ""S"": 6.0, ""O"": 25.0, ""H"": 2.0}",872.937,#FFFFFF,monoclinic
Gormanite,Fe2+3Al4(PO4)4(OH)6·2H2O,"{""Fe"": 3.0, ""Al"": 4.0, ""P"": 4.0, ""O"": 24.0, ""H"": 10.0}",793.415,#556B2F,triclinic
Gortdrumite,Cu24Fe2Hg9S23,"{""Cu"": 24.0, ""Fe"": 2.0, ""Hg"": 9.0, ""S"": 23.0}",4179.484,#DAA520,orthorhombic
Goryainovite,Ca2(PO4)Cl,"{""Ca"": 2.0, ""P"": 1.0, ""O"": 4.0, ""Cl"": 1.0}",210.576,#FFFFFF,orthorhombic
Gottardiite,Na3Mg3Ca5Al19Si117O272·93H2O,"{""Na"": 3.0, ""Mg"": 3.0, ""Ca"": 5.0, ""Al"": 19.0, ""Si"": 117.0, ""O"": 365.0, ""H"": 186.0}",10168.001,#FFFFFF,orthorhombic
Gottlobite,CaMg(VO4)(OH),"{""Ca"": 1.0, ""Mg"": 1.0, ""V"": 1.0, ""O"": 5.0, ""H"": 1.0}",196.328,#FFFFFF,orthorhombic
Gotzenite,Ca4NaCa2Ti(Si2O7)2(OF)F2,"{""Ca"": 6.0, ""Na"": 1.0, ""Ti"": 1.0, ""Si"": 4.0, ""O"": 15.0, ""F"": 3.0}",720.644,#FFFFFF,triclinic
Goudeyite,Cu6Al(AsO4)3(OH)6·3H2O,"{""Cu"": 6.0, ""Al"": 1.0, ""As"": 3.0, ""O"": 21.0, ""H"": 12.0}",981.099,#FFFFFF,hexagonal
Gowerite,Ca[B5O8(OH)][B(OH)3]·3H2O,"{""Ca"": 1.0, ""B"": 6.0, ""O"": 15.0, ""H"": 10.0}",355.003,#FFFFFF,monoclinic
Goyazite,SrAl3(PO4)(PO3OH)(OH)6,"{""Sr"": 1.0, ""Al"": 3.0, ""P"": 2.0, ""O"": 14.0, ""H"": 7.0}",461.556,#FFFFFF,hexagonal
Graemite,Cu2+(Te4+O3)·H2O,"{""Cu"": 1.0, ""Te"": 1.0, ""O"": 4.0, ""H"": 2.0}",257.158,#FFFFFF,orthorhombic
Graeserite,Fe3+4Ti3As3+O13(OH),"{""Fe"": 4.0, ""Ti"": 3.0, ""As"": 1.0, ""O"": 14.0, ""H"": 1.0}",666.897,#556B2F,monoclinic
Graftonite,Fe2+Fe2+2(PO4)2,"{""Fe"": 3.0, ""P"": 2.0, ""O"": 8.0}",357.475,#8B4513,monoclinic
Graftonite-(Ca),CaFe2+2(PO4)2,"{""Ca"": 1.0, ""Fe"": 2.0, ""P"": 2.0, ""O"": 8.0}",341.708,#556B2F,monoclinic
Grahampearsonite,Ca2P2O7,"{""Ca"": 2.0, ""P"": 2.0, ""O"": 7.0}",254.097,#FFFFFF,tetragonal
Grammatikopoulosite,NiVP,"{""Ni"": 1.0, ""V"": 1.0, ""P"": 1.0}",140.609,#7FFF00,orthorhombic
Grandaite,Sr2Al(AsO4)2(OH),"{""Sr"": 2.0, ""Al"": 1.0, ""As"": 2.0, ""O"": 9.0, ""H"": 1.0}",497.065,#FFFFFF,monoclinic
Grandidierite,MgAl3O2(BO3)(SiO4),"{""Mg"": 1.0, ""Al"": 3.0, ""O"": 9.0, ""B"": 1.0, ""Si"": 1.0}",288.137,#FFFFFF,orthorhombic
Grandreefite,Pb2(SO4)F2,"{""Pb"": 2.0, ""S"": 1.0, ""O"": 4.0, ""F"": 2.0}",548.452,#FFFFFF,monoclinic
Grandviewite,Cu3Al2(SO4)(OH)10·H2O,"{""Cu"": 3.0, ""Al"": 2.0, ""S"": 1.0, ""O"": 15.0, ""H"": 12.0}",528.743,#FFFFFF,triclinic
Graphite,C,"{""C"": 1.0}",12.011,#FFFFFF,orthorhombic
Gratonite,Pb9As4S15,"{""Pb"": 9.0, ""As"": 4.0, ""S"": 15.0}",2645.388,#708090,hexagonal
Grattarolaite,Fe3+3O3(PO4),"{""Fe"": 3.0, ""O"": 7.0, ""P"": 1.0}",310.502,#8B4513,hexagonal
Graulichite-(Ce),CeFe3+3(AsO4)2(OH)6,"{""Ce"": 1.0, ""Fe"": 3.0, ""As"": 2.0, ""O"": 14.0, ""H"": 6.0}",687.533,#556B2F,hexagonal
Graulichite-(La),LaFe3+3(AsO4)2(OH)6,"{""La"": 1.0, ""Fe"": 3.0, ""As"": 2.0, ""O"": 14.0, ""H"": 6.0}",686.323,#556B2F,hexagonal
Greenlizardite,(NH4)Na(UO2)2(SO4)2(OH)2·4H2O,"{""N"": 1.0, ""H"": 14.0, ""Na"": 1.0, ""U"": 2.0, ""O"": 18.0, ""S"": 2.0}",879.271,#FFFFFF,triclinic
Greenockite,CdS,"{""Cd"": 1.0, ""S"": 1.0}",144.47,#A9A9A9,hexagonal
Gregoryite,Na2(CO3),"{""Na"": 2.0, ""C"": 1.0, ""O"": 3.0}",105.988,#FFFFFF,
Greifensteinite,Ca2Be4Fe2+5(PO4)6(OH)4·6H2O,"{""Ca"": 2.0, ""Be"": 4.0, ""Fe"": 5.0, ""P"": 6.0, ""O"": 34.0, ""H"": 16.0}",1141.3678,#556B2F,monoclinic
Greigite,Fe2+Fe3+2S4,"{""Fe"": 3.0, ""S"": 4.0}",295.775,#DAA520,cubic
Grguricite,CaCr2(CO3)2(OH)4·4H2O,"{""Ca"": 1.0, ""Cr"": 2.0, ""C"": 2.0, ""O"": 14.0, ""H"": 12.0}",404.174,#FFFFFF,triclinic
Griceite,LiF,"{""Li"": 1.0, ""F"": 1.0}",25.938,#FFFFFF,cubic
Griffinite,Al2TiO5,"{""Al"": 2.0, ""Ti"": 1.0, ""O"": 5.0}",181.826,#FFFFFF,orthorhombic
Grigorievite,Cu3Fe3+2Al2(VO4)6,"{""Cu"": 3.0, ""Fe"": 2.0, ""Al"": 2.0, ""V"": 6.0, ""O"": 24.0}",1045.92,#556B2F,triclinic
Grimaldiite,CrO(OH),"{""Cr"": 1.0, ""O"": 2.0, ""H"": 1.0}",85.002,#228B22,hexagonal
Grimmite,NiCo2S4,"{""Ni"": 1.0, ""Co"": 2.0, ""S"": 4.0}",304.799,#A9A9A9,cubic
Grimselite,K3Na(UO2)(CO3)3·H2O,"{""K"": 3.0, ""Na"": 1.0, ""U"": 1.0, ""O"": 12.0, ""C"": 3.0, ""H"": 2.0}",608.351,#FFFFFF,hexagonal
Grokhovskyite,CuCrS2,"{""Cu"": 1.0, ""Cr"": 1.0, ""S"": 2.0}",179.662,#A9A9A9,hexagonal
Grootfonteinite,Pb3O(CO3)2,"{""Pb"": 3.0, ""O"": 7.0, ""C"": 2.0}",757.615,#FFFFFF,hexagonal
Grossite,CaAl4O7,"{""Ca"": 1.0, ""Al"": 4.0, ""O"": 7.0}",259.999,#FFFFFF,monoclinic
Grossular,Ca3Al2(SiO4)3,"{""Ca"": 3.0, ""Al"": 2.0, ""Si"": 3.0, ""O"": 12.0}",450.441,#FFFFFF,triclinic
Grumantite,NaSi2O4(OH)·H2O,"{""Na"": 1.0, ""Si"": 2.0, ""O"": 6.0, ""H"": 3.0}",178.178,#FFFFFF,orthorhombic
Grumiplucite,HgBi2S4,"{""Hg"": 1.0, ""Bi"": 2.0, ""S"": 4.0}",746.79,#A9A9A9,monoclinic
Grundmannite,CuBiSe2,"{""Cu"": 1.0, ""Bi"": 1.0, ""Se"": 2.0}",430.468,#00BFFF,orthorhombic
Gruzdevite,Cu6Hg3Sb4S12,"{""Cu"": 6.0, ""Hg"": 3.0, ""Sb"": 4.0, ""S"": 12.0}",1854.806,#A9A9A9,hexagonal
Guanacoite,Cu2Mg3(OH)4(AsO4)2·4H2O,"{""Cu"": 2.0, ""Mg"": 3.0, ""O"": 16.0, ""H"": 12.0, ""As"": 2.0}",617.931,#FFFFFF,monoclinic
Guanajuatite,Bi2Se3,"{""Bi"": 2.0, ""Se"": 3.0}",654.873,#D2B48C,orthorhombic
Guangyuanite,Pb3Cl3(Se4+O3)(OH),"{""Pb"": 3.0, ""Cl"": 3.0, ""Se"": 1.0, ""O"": 4.0, ""H"": 1.0}",871.925,#FFFFFF,orthorhombic
Guanine,C5H3(NH2)N4O,"{""C"": 5.0, ""H"": 5.0, ""N"": 5.0, ""O"": 1.0}",151.129,#FFFFFF,monoclinic
Guastoniite-(Y),Pb4(YCa)(Si8B4O28)F,"{""Pb"": 4.0, ""Y"": 1.0, ""Ca"": 1.0, ""Si"": 8.0, ""B"": 4.0, ""O"": 28.0, ""F"": 1.0}",1692.674,#FFFFFF,triclinic
Gudmundite,FeSbS,"{""Fe"": 1.0, ""Sb"": 1.0, ""S"": 1.0}",209.665,#DAA520,monoclinic
Guettardite,PbSbAsS4,"{""Pb"": 1.0, ""Sb"": 1.0, ""As"": 1.0, ""S"": 4.0}",532.122,#708090,monoclinic
Gugiaite,Ca2BeSi2O7,"{""Ca"": 2.0, ""Be"": 1.0, ""Si"": 2.0, ""O"": 7.0}",257.3312,#FFFFFF,tetragonal
Guildite,CuFe3+(SO4)2(OH)·4H2O,"{""Cu"": 1.0, ""Fe"": 1.0, ""S"": 2.0, ""O"": 13.0, ""H"": 9.0}",400.57,#556B2F,monoclinic
Guilleminite,Ba(UO2)3(Se4+O3)2O2·3H2O,"{""Ba"": 1.0, ""U"": 3.0, ""O"": 17.0, ""Se"": 2.0, ""H"": 6.0}",1287.393,#FFFFFF,orthorhombic
Guite,Co2+Co3+2O4,"{""Co"": 3.0, ""O"": 4.0}",240.795,#4169E1,cubic
Guixiangite,NiBiS,"{""Ni"": 1.0, ""Bi"": 1.0, ""S"": 1.0}",299.733,#A9A9A9,cubic
Gungerite,TlAs5Sb4S13,"{""Tl"": 1.0, ""As"": 5.0, ""Sb"": 4.0, ""S"": 13.0}",1482.81,#FFD700,orthorhombic
Gunmaite,(Na2Sr)Sr2Al10(PO4)4F14(OH)12,"{""Na"": 2.0, ""Sr"": 3.0, ""Al"": 10.0, ""P"": 4.0, ""O"": 28.0, ""F"": 14.0, ""H"": 12.0}",1428.596,#FFFFFF,hexagonal
Gunterite,Na4Ca[V10O28]·20H2O,"{""Na"": 4.0, ""Ca"": 1.0, ""V"": 10.0, ""O"": 48.0, ""H"": 40.0}",1449.73,#FFFFFF,monoclinic
Gupeiite,Fe3Si,"{""Fe"": 3.0, ""Si"": 1.0}",195.62,#8B4513,cubic
Gurimite,Ba3(VO4)2,"{""Ba"": 3.0, ""V"": 2.0, ""O"": 8.0}",641.866,#FFFFFF,hexagonal
Gurzhiite,Al(UO2)(SO4)2F·10H2O,"{""Al"": 1.0, ""U"": 1.0, ""O"": 20.0, ""S"": 2.0, ""F"": 1.0, ""H"": 20.0}",688.27,#FFFFFF,triclinic
Gustavite,AgPbBi3S6,"{""Ag"": 1.0, ""Pb"": 1.0, ""Bi"": 3.0, ""S"": 6.0}",1134.37,#708090,orthorhombic
Guyanaite,CrO(OH),"{""Cr"": 1.0, ""O"": 2.0, ""H"": 1.0}",85.002,#228B22,orthorhombic
Gwihabaite,(NH4)(NO3),"{""N"": 2.0, ""H"": 4.0, ""O"": 3.0}",80.043,#FFFFFF,orthorhombic
Gypsum,Ca(SO4)·2H2O,"{""Ca"": 1.0, ""S"": 1.0, ""O"": 6.0, ""H"": 4.0}",172.164,#FFFFFF,monoclinic
Gyrolite,NaCa16(Si23Al)O60(OH)8·14H2O,"{""Na"": 1.0, ""Ca"": 16.0, ""Si"": 23.0, ""Al"": 1.0, ""O"": 82.0, ""H"": 36.0}",2685.381,#FFFFFF,triclinic
Gysinite-(Ce),PbCe(CO3)2(OH)(H2O),"{""Pb"": 1.0, ""Ce"": 1.0, ""C"": 2.0, ""O"": 8.0, ""H"": 3.0}",502.358,#FFFFFF,orthorhombic
Gysinite-(La),PbLa(CO3)2(OH)·H2O,"{""Pb"": 1.0, ""La"": 1.0, ""C"": 2.0, ""O"": 8.0, ""H"": 3.0}",501.148,#FFFFFF,orthorhombic
Gysinite-(Nd),PbNd(CO3)2(OH)·H2O,"{""Pb"": 1.0, ""Nd"": 1.0, ""C"": 2.0, ""O"": 8.0, ""H"": 3.0}",506.478,#FFFFFF,orthorhombic
Hafnon,Hf(SiO4),"{""Hf"": 1.0, ""Si"": 1.0, ""O"": 4.0}",270.571,#FFFFFF,tetragonal
Haggertyite,BaFe2+4Fe3+2Ti5MgO19,"{""Ba"": 1.0, ""Fe"": 6.0, ""Ti"": 5.0, ""Mg"": 1.0, ""O"": 19.0}",1040.021,#556B2F,hexagonal
Haggite,V3+V4+O2(OH)3,"{""V"": 2.0, ""O"": 5.0, ""H"": 3.0}",184.903,#FFFFFF,monoclinic
Hagstromite,Pb8Cu2+(Te6+O6)2(CO3)Cl4,"{""Pb"": 8.0, ""Cu"": 1.0, ""Te"": 2.0, ""O"": 15.0, ""C"": 1.0, ""Cl"": 4.0}",2370.142,#FFFFFF,orthorhombic
Haidingerite,Ca(AsO3OH)·H2O,"{""Ca"": 1.0, ""As"": 1.0, ""O"": 5.0, ""H"": 3.0}",198.019,#FFFFFF,orthorhombic
Haigerachite,KFe3+3(H2PO4)6(HPO4)2·4H2O,"{""K"": 1.0, ""Fe"": 3.0, ""H"": 22.0, ""P"": 8.0, ""O"": 36.0}",1052.565,#556B2F,monoclinic
Hainite-(Y),Ca2(CaY)Na(NaCa)Ti(Si2O7)2(OF)F2,"{""Ca"": 4.0, ""Y"": 1.0, ""Na"": 2.0, ""Ti"": 1.0, ""Si"": 4.0, ""O"": 15.0, ""F"": 3.0}",752.384,#FFFFFF,triclinic
Haitaite-(La),LaU4+Fe3+2(Ti13Fe2+4Fe3+)O38,"{""La"": 1.0, ""U"": 1.0, ""Fe"": 7.0, ""Ti"": 13.0, ""O"": 38.0}",1998.088,#556B2F,hexagonal
Haiweeite,Ca(UO2)2(Si5O12)(OH)2·6H2O,"{""Ca"": 1.0, ""U"": 2.0, ""O"": 24.0, ""Si"": 5.0, ""H"": 14.0}",1054.651,#FFFFFF,orthorhombic