name,formula,elements,density,color,crystal,pm_ids,gacha_weight
Mammothite,Pb6Cu4AlSb5+O2(SO4)2Cl4(OH)16,"{""Pb"": 6.0, ""Cu"": 4.0, ""Al"": 1.0, ""Sb"": 1.0, ""O"": 26.0, ""S"": 2.0, ""Cl"": 4.0, ""H"": 16.0}",2284.148,#FFFFFF,monoclinic,"{47,56}",2141.0
Mampsisite,Ca4Al2(OH)12(CO3) · 5H2O,"{""Ca"": 4.0, ""Al"": 2.0, ""O"": 20.0, ""H"": 22.0, ""C"": 1.0}",568.443,#FFFFFF,triclinic,{},1.0
Manandonite,Li2Al4(Si2AlB)O10(OH)8,"{""Li"": 2.0, ""Al"": 5.0, ""Si"": 2.0, ""B"": 1.0, ""O"": 18.0, ""H"": 8.0}",511.816,#FFFFFF,triclinic,{34},564.0
Mandarinoite,Fe3+2(Se4+O3)3·6H2O,"{""Fe"": 2.0, ""Se"": 3.0, ""O"": 15.0, ""H"": 12.0}",600.684,#556B2F,monoclinic,{47},1998.0
Mangazeite,Al2(SO4)(OH)4·3H2O,"{""Al"": 2.0, ""S"": 1.0, ""O"": 11.0, ""H"": 10.0}",272.093,#FFFFFF,triclinic,{47},1998.0
Mannardite,Ba(Ti6V3+2)O16,"{""Ba"": 1.0, ""Ti"": 6.0, ""V"": 2.0, ""O"": 16.0}",782.4,#FFFFFF,tetragonal,"{7,23,32}",933.0
Mansfieldite,Al(AsO4)·2H2O,"{""Al"": 1.0, ""As"": 1.0, ""O"": 6.0, ""H"": 4.0}",201.93,#FFFFFF,orthorhombic,"{22,46}",299.0
Mantienneite,(H2O)2Mg2(Al2Ti)(PO4)4(OH)2(H2O)10·4H2O,"{""H"": 34.0, ""O"": 34.0, ""Mg"": 2.0, ""Al"": 2.0, ""Ti"": 1.0, ""P"": 4.0}",852.575,#FFFFFF,orthorhombic,"{34,47}",2562.0
Manuelarossiite,PbCaAlF7,"{""Pb"": 1.0, ""Ca"": 1.0, ""Al"": 1.0, ""F"": 7.0}",407.246,#FFFFFF,monoclinic,{},1.0
Maohokite,MgFe2O4,"{""Mg"": 1.0, ""Fe"": 2.0, ""O"": 4.0}",199.991,#8B4513,orthorhombic,{30},16.0
Marathonite,Pd25Ge9,"{""Pd"": 25.0, ""Ge"": 9.0}",3314.17,#FFFFFF,hexagonal,{37},135.0
Marcasite,FeS2,"{""Fe"": 1.0, ""S"": 2.0}",119.965,#DAA520,orthorhombic,"{11,15,49,50,53,54,55}",1033.0
Marchettiite,C5H7N5O3,"{""C"": 5.0, ""H"": 7.0, ""N"": 5.0, ""O"": 3.0}",185.143,#FFFFFF,triclinic,{52},72.0
Marcobaldiite,Pb12(Sb3As2Bi)Σ6S21,"{""Pb"": 12.0, ""Sb"": 18.0, ""As"": 12.0, ""Bi"": 6.0, ""S"": 21.0}",7504.284,#708090,triclinic,{12},129.0
Marecottite,Mg3O6(UO2)8(SO4)4(OH)2·28H2O,"{""Mg"": 3.0, ""O"": 68.0, ""U"": 8.0, ""S"": 4.0, ""H"": 58.0}",3251.791,#FFFFFF,triclinic,"{47,55}",2262.0
Margaritasite,Cs2(UO2)2(VO4)2·H2O,"{""Cs"": 2.0, ""U"": 2.0, ""O"": 13.0, ""V"": 2.0, ""H"": 2.0}",1053.767,#FFFFFF,monoclinic,{16},83.0
Margarite,CaAl2Si2Al2O10(OH)2,"{""Ca"": 1.0, ""Al"": 4.0, ""Si"": 2.0, ""O"": 12.0, ""H"": 2.0}",398.18,#FFFFFF,monoclinic,"{6,23,40}",922.0
Margarosanite,Ca2PbSi3O9,"{""Ca"": 2.0, ""Pb"": 1.0, ""Si"": 3.0, ""O"": 9.0}",515.602,#FFFFFF,triclinic,{32},412.0
Mariakrite,[Ca4Al2(OH)12(H2O)4][Fe2S4],"{""Ca"": 4.0, ""Al"": 2.0, ""O"": 16.0, ""H"": 20.0, ""Fe"": 2.0, ""S"": 4.0}",730.35,#556B2F,triclinic,{22},247.0
Marialite,Na4Al3Si9O24Cl,"{""Na"": 4.0, ""Al"": 3.0, ""Si"": 9.0, ""O"": 24.0, ""Cl"": 1.0}",845.097,#FFFFFF,tetragonal,"{6,9,10,16,23,25,31,34,40}",2369.0
Maricite,NaFe2+(PO4),"{""Na"": 1.0, ""Fe"": 1.0, ""P"": 1.0, ""O"": 4.0}",173.805,#556B2F,orthorhombic,"{5,21}",173.0
Mariinskite,BeCr2O4,"{""Be"": 1.0, ""Cr"": 2.0, ""O"": 4.0}",177.0002,#228B22,orthorhombic,{7},123.0
Marinaite,Cu2Fe3+O2(BO3),"{""Cu"": 2.0, ""Fe"": 1.0, ""O"": 5.0, ""B"": 1.0}",273.742,#556B2F,monoclinic,{45},424.0
Marinellite,Na42Ca6Al36Si36O144(SO4)8Cl2·6H2O,"{""Na"": 42.0, ""Ca"": 6.0, ""Al"": 36.0, ""Si"": 36.0, ""O"": 182.0, ""S"": 8.0, ""Cl"": 2.0, ""H"": 12.0}",6439.754,#FFFFFF,hexagonal,"{31,35}",1082.0
Marioantofilliite,[Cu4Al2(OH)12](CO3)·3H2O,"{""Cu"": 4.0, ""Al"": 2.0, ""O"": 18.0, ""H"": 18.0, ""C"": 1.0}",626.285,#FFFFFF,monoclinic,{},1.0
Markascherite,Cu3(MoO4)(OH)4,"{""Cu"": 3.0, ""Mo"": 1.0, ""O"": 8.0, ""H"": 4.0}",418.612,#FFFFFF,monoclinic,{47},1998.0
Markcooperite,Pb2(UO2)TeO6,"{""Pb"": 2.0, ""U"": 1.0, ""O"": 8.0, ""Te"": 1.0}",908.022,#FFFFFF,monoclinic,{47},1998.0
Markeyite,Ca9(UO2)4(CO3)13·28H2O,"{""Ca"": 9.0, ""U"": 4.0, ""O"": 75.0, ""C"": 13.0, ""H"": 56.0}",2725.338,#FFFFFF,orthorhombic,{47},1998.0
Markhininite,TlBi(SO4)2,"{""Tl"": 1.0, ""Bi"": 1.0, ""S"": 2.0, ""O"": 8.0}",605.472,#FFFFFF,triclinic,{45},424.0
Marklite,Cu5(CO3)2(OH)6·6H2O,"{""Cu"": 5.0, ""C"": 2.0, ""O"": 18.0, ""H"": 18.0}",647.878,#FFFFFF,monoclinic,"{47,55}",2262.0
Markwelchite,TlPbSbS3,"{""Tl"": 1.0, ""Pb"": 1.0, ""Sb"": 1.0, ""S"": 3.0}",629.52,#708090,monoclinic,{},1.0
Marrite,AgPbAsS3,"{""Ag"": 1.0, ""Pb"": 1.0, ""As"": 1.0, ""S"": 3.0}",486.172,#708090,monoclinic,{33},797.0
Marrucciite,Hg3Pb16Sb18S46,"{""Hg"": 3.0, ""Pb"": 16.0, ""Sb"": 18.0, ""S"": 46.0}",7583.41,#708090,monoclinic,{33},797.0
Marsaalamite-(Y),Y(MoO4)(OH),"{""Y"": 1.0, ""Mo"": 1.0, ""O"": 5.0, ""H"": 1.0}",265.859,#FFFFFF,monoclinic,{},1.0
Marshite,CuI,"{""Cu"": 1.0, ""I"": 1.0}",190.446,#00BFFF,cubic,{47},1998.0
Marthozite,Cu2+(UO2)3(Se4+O3)2O2·8H2O,"{""Cu"": 1.0, ""U"": 3.0, ""O"": 22.0, ""Se"": 2.0, ""H"": 16.0}",1303.684,#FFFFFF,orthorhombic,{47},1998.0
Martinandresite,Ba2(Al4Si12O32)·10H2O,"{""Ba"": 2.0, ""Al"": 4.0, ""Si"": 12.0, ""O"": 42.0, ""H"": 20.0}",1411.726,#FFFFFF,orthorhombic,{32},412.0
Marumoite,Pb32As40S92,"{""Pb"": 32.0, ""As"": 40.0, ""S"": 92.0}",12576.8,#708090,monoclinic,{33},797.0
Maruyamaite,K(MgAl2)(Al5Mg)(BO3)3(Si6O18)(OH)3O,"{""K"": 1.0, ""Mg"": 2.0, ""Al"": 7.0, ""B"": 3.0, ""O"": 31.0, ""Si"": 6.0, ""H"": 3.0}",976.515,#FFFFFF,hexagonal,{39},70.0
Masaitisite,KCu5O2(SeO3)2Cl3,"{""K"": 1.0, ""Cu"": 5.0, ""O"": 8.0, ""Se"": 2.0, ""Cl"": 3.0}",749.112,#FFFFFF,orthorhombic,{},1.0
Mascagnite,(NH4)2(SO4),"{""N"": 2.0, ""H"": 8.0, ""S"": 1.0, ""O"": 4.0}",132.134,#FFFFFF,orthorhombic,"{14,45,50,52,54,55}",1328.0
Maslovite,PtBiTe,"{""Pt"": 1.0, ""Bi"": 1.0, ""Te"": 1.0}",531.66,#D2B48C,cubic,"{33,37}",932.0
Massicot,PbO,"{""Pb"": 1.0, ""O"": 1.0}",223.199,#FFFFFF,orthorhombic,"{50,54}",507.0
Masuyite,Pb(UO2)3O3(OH)2·3H2O,"{""Pb"": 1.0, ""U"": 3.0, ""O"": 14.0, ""H"": 8.0}",1153.34,#FFFFFF,monoclinic,{47},1998.0
Mathesiusite,K5(UO2)4(SO4)4(VO5)(H2O)4,"{""K"": 5.0, ""U"": 4.0, ""O"": 33.0, ""S"": 4.0, ""V"": 1.0, ""H"": 8.0}",1862.823,#FFFFFF,tetragonal,"{47,55}",2262.0
Matildite,AgBiS2,"{""Ag"": 1.0, ""Bi"": 1.0, ""S"": 2.0}",380.97,#A9A9A9,hexagonal,{33},797.0
Matioliite,NaMgAl5(PO4)4(OH)6·2H2O,"{""Na"": 1.0, ""Mg"": 1.0, ""Al"": 5.0, ""P"": 4.0, ""O"": 24.0, ""H"": 10.0}",700.157,#FFFFFF,unknown,"{34,47}",2562.0
Matlockite,PbClF,"{""Pb"": 1.0, ""Cl"": 1.0, ""F"": 1.0}",261.648,#FFFFFF,tetragonal,"{45,47}",2422.0
Matsubaraite,Sr4Ti5O8(Si2O7)2,"{""Sr"": 4.0, ""Ti"": 5.0, ""O"": 22.0, ""Si"": 4.0}",1054.133,#FFFFFF,monoclinic,{35},726.0
Mattagamite,CoTe2,"{""Co"": 1.0, ""Te"": 2.0}",314.133,#4169E1,orthorhombic,{33},797.0
Matteuccite,NaH(SO4)·H2O,"{""Na"": 1.0, ""H"": 3.0, ""S"": 1.0, ""O"": 5.0}",138.069,#FFFFFF,monoclinic,{45},424.0
Matthiasweilite,PbTe4+O3,"{""Pb"": 1.0, ""Te"": 1.0, ""O"": 3.0}",382.797,#FFFFFF,triclinic,{47},1998.0
Matulaite,Fe3+Al7(PO4)4(PO3OH)2(OH)8(H2O)8·8H2O,"{""Fe"": 1.0, ""Al"": 7.0, ""P"": 6.0, ""O"": 48.0, ""H"": 42.0}",1240.851,#556B2F,monoclinic,{47},1998.0
Maucherite,Ni11As8,"{""Ni"": 11.0, ""As"": 8.0}",1244.999,#7FFF00,monoclinic,{33},797.0
Mauriziodiniite,(NH4)(As2O3)2I,"{""N"": 1.0, ""H"": 4.0, ""As"": 4.0, ""O"": 6.0, ""I"": 1.0}",540.621,#FFFFFF,hexagonal,{45},424.0
Maurogemmiite,Ti10Fe3O3,"{""Ti"": 10.0, ""Fe"": 3.0, ""O"": 3.0}",694.202,#8B4513,hexagonal,{},1.0
Mawbyite,PbFe3+2(AsO4)2(OH)2,"{""Pb"": 1.0, ""Fe"": 2.0, ""As"": 2.0, ""O"": 10.0, ""H"": 2.0}",630.74,#556B2F,monoclinic,{47},1998.0
Maxwellite,NaFe3+(AsO4)F,"{""Na"": 1.0, ""Fe"": 1.0, ""As"": 1.0, ""O"": 4.0, ""F"": 1.0}",236.751,#556B2F,monoclinic,"{20,45}",469.0
Mayingite,IrBiTe,"{""Ir"": 1.0, ""Bi"": 1.0, ""Te"": 1.0}",528.8,#D2B48C,cubic,"{7,26,33}",1170.0
Mazorite,Ba3(PO4)2,"{""Ba"": 3.0, ""P"": 2.0, ""O"": 8.0}",601.93,#FFFFFF,hexagonal,{51},128.0
Mazzettiite,Ag3HgPbSbTe5,"{""Ag"": 3.0, ""Hg"": 1.0, ""Pb"": 1.0, ""Sb"": 1.0, ""Te"": 5.0}",1491.16,#FFFFFF,orthorhombic,{33},797.0
Mazzite-Mg,Mg5(Si26Al10)O72·30H2O,"{""Mg"": 5.0, ""Si"": 26.0, ""Al"": 10.0, ""O"": 102.0, ""H"": 60.0}",2813.933,#FFFFFF,hexagonal,{10},107.0
Mazzite-Na,Na8(Si28Al8)O72·30H2O,"{""Na"": 8.0, ""Si"": 28.0, ""Al"": 8.0, ""O"": 102.0, ""H"": 60.0}",2878.534,#FFFFFF,hexagonal,{10},107.0
Mcallisterite,Mg2[B6O7(OH)6]2·9H2O,"{""Mg"": 2.0, ""B"": 12.0, ""O"": 35.0, ""H"": 30.0}",768.535,#FFFFFF,hexagonal,"{25,47}",2208.0
Mcalpineite,Cu3Te6+O6,"{""Cu"": 3.0, ""Te"": 1.0, ""O"": 6.0}",414.232,#00BFFF,orthorhombic,{47},1998.0
Mcauslanite,Fe2+3Al2(PO4)3(PO3OH)F·18H2O,"{""Fe"": 3.0, ""Al"": 2.0, ""P"": 4.0, ""O"": 34.0, ""H"": 37.0, ""F"": 1.0}",945.655,#556B2F,triclinic,{47},1998.0
Mcbirneyite,Cu3(VO4)2,"{""Cu"": 3.0, ""V"": 2.0, ""O"": 8.0}",420.514,#00BFFF,triclinic,{45},424.0
Mcconnellite,Cu1+CrO2,"{""Cu"": 1.0, ""Cr"": 1.0, ""O"": 2.0}",147.54,#00BFFF,hexagonal,"{33,56}",940.0
Mcguinnessite,CuMg(CO3)(OH)2,"{""Cu"": 1.0, ""Mg"": 1.0, ""C"": 1.0, ""O"": 5.0, ""H"": 2.0}",181.873,#FFFFFF,monoclinic,"{13,40}",386.0
Mckelveyite-(Nd),NaCaBa3Nd(CO3)6·3H2O,"{""Na"": 1.0, ""Ca"": 1.0, ""Ba"": 3.0, ""Nd"": 1.0, ""C"": 6.0, ""O"": 21.0, ""H"": 6.0}",1033.391,#FFFFFF,monoclinic,{},1.0
Mckelveyite-(Y),NaBa3CaY(CO3)6·3H2O,"{""Na"": 1.0, ""Ba"": 3.0, ""Ca"": 1.0, ""Y"": 1.0, ""C"": 6.0, ""O"": 21.0, ""H"": 6.0}",978.057,#FFFFFF,monoclinic,"{25,35}",936.0
Mckinstryite,Ag5Cu3S4,"{""Ag"": 5.0, ""Cu"": 3.0, ""S"": 4.0}",858.228,#A9A9A9,orthorhombic,{33},797.0
Mcnearite,NaCa5(AsO4)(AsO3OH)4·4H2O,"{""Na"": 1.0, ""Ca"": 5.0, ""As"": 5.0, ""O"": 24.0, ""H"": 12.0}",994.062,#FFFFFF,triclinic,{47},1998.0
Medenbachite,Bi2Fe3+Cu2+(AsO4)2O(OH)3,"{""Bi"": 2.0, ""Fe"": 1.0, ""Cu"": 1.0, ""As"": 2.0, ""O"": 12.0, ""H"": 3.0}",882.207,#556B2F,triclinic,{47},1998.0
Megacyclite,KNa8Si9O18(OH)9·19H2O,"{""K"": 1.0, ""Na"": 8.0, ""Si"": 9.0, ""O"": 46.0, ""H"": 47.0}",1259.113,#FFFFFF,monoclinic,{35},726.0
Megakalsilite,KAlSiO4,"{""K"": 1.0, ""Al"": 1.0, ""Si"": 1.0, ""O"": 4.0}",158.161,#FFFFFF,hexagonal,{35},726.0
Meieranite,Na2Sr3MgSi6O17,"{""Na"": 2.0, ""Sr"": 3.0, ""Mg"": 1.0, ""Si"": 6.0, ""O"": 17.0}",773.638,#FFFFFF,orthorhombic,"{22,32}",659.0
Meierite,Ba44Si66Al30O192Cl25(OH)33,"{""Ba"": 44.0, ""Si"": 66.0, ""Al"": 30.0, ""O"": 225.0, ""Cl"": 25.0, ""H"": 33.0}",13224.879,#FFFFFF,cubic,{32},412.0
Meifuite,KFe6(Si7Al)O19(OH)4Cl2,"{""K"": 1.0, ""Fe"": 6.0, ""Si"": 7.0, ""Al"": 1.0, ""O"": 23.0, ""H"": 4.0, ""Cl"": 2.0}",1040.654,#556B2F,triclinic,"{8,9,19,20,31,34,35,40}",2373.0
Meionite,Ca4Al6Si6O24(CO3),"{""Ca"": 4.0, ""Al"": 6.0, ""Si"": 6.0, ""O"": 27.0, ""C"": 1.0}",934.698,#FFFFFF,tetragonal,"{6,9,10,16,23,25,31,34,40}",2369.0
Meisserite,Na5(UO2)(SO4)3(SO3OH)(H2O),"{""Na"": 5.0, ""U"": 1.0, ""O"": 19.0, ""S"": 4.0, ""H"": 3.0}",788.225,#FFFFFF,triclinic,"{47,55}",2262.0
Meitnerite,(NH4)(UO2)(SO4)(OH)·2H2O,"{""N"": 1.0, ""H"": 9.0, ""U"": 1.0, ""O"": 9.0, ""S"": 1.0}",437.16,#FFFFFF,triclinic,"{47,52,55}",2334.0
Meixnerite,Mg6Al2(OH)16(OH)2·4H2O,"{""Mg"": 6.0, ""Al"": 2.0, ""O"": 22.0, ""H"": 26.0}",577.98,#FFFFFF,hexagonal,"{13,47}",2065.0
Meizhouite,Fe2+V3+2(PO4)2(OH)2,"{""Fe"": 1.0, ""V"": 2.0, ""P"": 2.0, ""O"": 10.0, ""H"": 2.0}",381.683,#556B2F,monoclinic,{},1.0
Mejillonesite,NaMg2(PO3OH)(PO4)(OH)·H5O2,"{""Na"": 1.0, ""Mg"": 2.0, ""P"": 2.0, ""O"": 11.0, ""H"": 7.0}",316.593,#FFFFFF,orthorhombic,"{47,50,52,54}",2577.0
Melanarsite,K3Cu7Fe3+O4(AsO4)4,"{""K"": 3.0, ""Cu"": 7.0, ""Fe"": 1.0, ""O"": 20.0, ""As"": 4.0}",1237.629,#556B2F,monoclinic,{45},424.0
Melanophlogite,C2H17O5·Si46O92,"{""C"": 2.0, ""H"": 17.0, ""O"": 97.0, ""Si"": 46.0}",2884.971,#FFFFFF,tetragonal,"{13,23}",465.0
Melanotekite,Pb2Fe3+2O2(Si2O7),"{""Pb"": 2.0, ""Fe"": 2.0, ""O"": 9.0, ""Si"": 2.0}",726.251,#556B2F,orthorhombic,"{32,47}",2410.0
Melanothallite,Cu2OCl2,"{""Cu"": 2.0, ""O"": 1.0, ""Cl"": 2.0}",213.991,#00BFFF,orthorhombic,{45},424.0
Melanterite,Fe(SO4)·7H2O,"{""Fe"": 1.0, ""S"": 1.0, ""O"": 11.0, ""H"": 14.0}",278.006,#556B2F,monoclinic,"{45,47,49,50,54,56}",3149.0
Melcherite,Ba2Na2Mg[Nb6O19]·6H2O,"{""Ba"": 2.0, ""Na"": 2.0, ""Mg"": 1.0, ""Nb"": 6.0, ""O"": 25.0, ""H"": 12.0}",1314.452,#FFFFFF,hexagonal,{35},726.0
Melkovite,CaFe3+2Mo5O10(PO4)2(OH)12·8H2O,"{""Ca"": 1.0, ""Fe"": 2.0, ""Mo"": 5.0, ""O"": 38.0, ""P"": 2.0, ""H"": 28.0}",1329.652,#556B2F,monoclinic,{47},1998.0
Mellite,Al2C6(COO)6·16H2O,"{""Al"": 2.0, ""C"": 12.0, ""O"": 28.0, ""H"": 32.0}",678.324,#FFFFFF,tetragonal,{50},273.0
Melonite,NiTe2,"{""Ni"": 1.0, ""Te"": 2.0}",313.893,#7FFF00,hexagonal,"{33,37}",932.0
Melonjosephite,CaFe2+Fe3+(PO4)2(OH),"{""Ca"": 1.0, ""Fe"": 2.0, ""P"": 2.0, ""O"": 9.0, ""H"": 1.0}",358.715,#556B2F,orthorhombic,"{22,47}",2245.0
Mendipite,Pb3O2Cl2,"{""Pb"": 3.0, ""O"": 2.0, ""Cl"": 2.0}",724.498,#FFFFFF,orthorhombic,"{47,56}",2141.0
Mendozavilite-KCa,[K2(H2O)15Ca(H2O)6][Mo8P2Fe3+3O34(OH)3],"{""K"": 2.0, ""H"": 45.0, ""O"": 58.0, ""Ca"": 1.0, ""Mo"": 8.0, ""P"": 2.0, ""Fe"": 3.0}",2088.659,#556B2F,monoclinic,{47},1998.0
Mendozavilite-NaCu,[Na2(H2O)15Cu(H2O)6][Mo8P2Fe3+3O34(OH)3],"{""Na"": 2.0, ""H"": 45.0, ""O"": 58.0, ""Cu"": 1.0, ""Mo"": 8.0, ""P"": 2.0, ""Fe"": 3.0}",2079.911,#556B2F,monoclinic,{47},1998.0
Mendozavilite-NaFe,[Na2(H2O)15Fe3+(H2O)6][Mo8P2Fe3+3O35(OH)2],"{""Na"": 2.0, ""H"": 44.0, ""O"": 58.0, ""Fe"": 4.0, ""Mo"": 8.0, ""P"": 2.0}",2071.202,#556B2F,monoclinic,{47},1998.0
Mendozite,NaAl(SO4)2·11H2O,"{""Na"": 1.0, ""Al"": 1.0, ""S"": 2.0, ""O"": 19.0, ""H"": 22.0}",440.249,#FFFFFF,monoclinic,"{45,47,50,55,56}",3102.0
Meneghinite,Pb13CuSb7S24,"{""Pb"": 13.0, ""Cu"": 1.0, ""Sb"": 7.0, ""S"": 24.0}",4378.906,#708090,orthorhombic,{33},797.0
Menezesite,Ba3MgZr4Nb12O42·12H2O,"{""Ba"": 3.0, ""Mg"": 1.0, ""Zr"": 4.0, ""Nb"": 12.0, ""O"": 54.0, ""H"": 24.0}",2804.201,#FFFFFF,cubic,{36},291.0
Meniaylovite,Ca4AlSi(SO4)F13·12H2O,"{""Ca"": 4.0, ""Al"": 1.0, ""Si"": 1.0, ""S"": 1.0, ""O"": 16.0, ""F"": 13.0, ""H"": 24.0}",774.589,#FFFFFF,cubic,{45},424.0
Menshikovite,Pd3Ni2As3,"{""Pd"": 3.0, ""Ni"": 2.0, ""As"": 3.0}",661.412,#7FFF00,hexagonal,"{33,37}",932.0
Menzerite-(Y),(CaY2)Mg2(SiO4)3,"{""Ca"": 1.0, ""Y"": 2.0, ""Mg"": 2.0, ""Si"": 3.0, ""O"": 12.0}",542.743,#FFFFFF,cubic,{40},319.0
Mercallite,KH(SO4),"{""K"": 1.0, ""H"": 1.0, ""S"": 1.0, ""O"": 4.0}",136.162,#FFFFFF,orthorhombic,"{45,47}",2422.0
Mercury,Hg,"{""Hg"": 1.0}",200.59,#FFFFFF,unknown,"{6,14,33}",1063.0
Mereheadite,Pb47O24(OH)13Cl25(BO3)2(CO3),"{""Pb"": 47.0, ""O"": 46.0, ""H"": 13.0, ""Cl"": 25.0, ""B"": 2.0, ""C"": 1.0}",11407.339,#FFFFFF,monoclinic,{47},1998.0
Mereiterite,K2Fe2+(SO4)2·4H2O,"{""K"": 2.0, ""Fe"": 1.0, ""S"": 2.0, ""O"": 12.0, ""H"": 8.0}",398.213,#556B2F,monoclinic,{47},1998.0
Merelaniite,Pb4Mo4VSbS15,"{""Pb"": 4.0, ""Mo"": 4.0, ""V"": 1.0, ""Sb"": 1.0, ""S"": 15.0}",1866.202,#708090,triclinic,{33},797.0
Merenskyite,PdTe2,"{""Pd"": 1.0, ""Te"": 2.0}",361.62,#FFFFFF,hexagonal,"{7,37}",258.0
Meridianiite,Mg(SO4)·11H2O,"{""Mg"": 1.0, ""S"": 1.0, ""O"": 15.0, ""H"": 22.0}",318.526,#FFFFFF,unknown,{47},1998.0
Merlinoite,K5Ca2(Si23Al9)O64·24H2O,"{""K"": 5.0, ""Ca"": 2.0, ""Si"": 23.0, ""Al"": 9.0, ""O"": 88.0, ""H"": 48.0}",2620.735,#FFFFFF,orthorhombic,"{10,16,42}",205.0
Merrillite,Ca9NaMg(PO4)7,"{""Ca"": 9.0, ""Na"": 1.0, ""Mg"": 1.0, ""P"": 7.0, ""O"": 28.0}",1072.787,#FFFFFF,hexagonal,"{4,5,6}",346.0
Merwinite,Ca3Mg(SiO4)2,"{""Ca"": 3.0, ""Mg"": 1.0, ""Si"": 2.0, ""O"": 8.0}",328.701,#FFFFFF,monoclinic,"{31,51}",484.0
Mesolite,Na2Ca2(Si9Al6)O30·8H2O,"{""Na"": 2.0, ""Ca"": 2.0, ""Si"": 9.0, ""Al"": 6.0, ""O"": 38.0, ""H"": 16.0}",1164.883,#FFFFFF,orthorhombic,"{9,10,14,17}",346.0
Messelite,Ca2Fe2+(PO4)2·2H2O,"{""Ca"": 2.0, ""Fe"": 1.0, ""P"": 2.0, ""O"": 10.0, ""H"": 4.0}",361.971,#556B2F,triclinic,"{22,34}",811.0
Meta-aluminite,Al2(SO4)(OH)4·5H2O,"{""Al"": 2.0, ""S"": 1.0, ""O"": 13.0, ""H"": 14.0}",308.123,#FFFFFF,unknown,{47},1998.0
Meta-alunogen,Al2(SO4)3·14H2O,"{""Al"": 2.0, ""S"": 3.0, ""O"": 26.0, ""H"": 28.0}",594.342,#FFFFFF,unknown,"{25,46}",262.0
Meta-ankoleite,K(UO2)(PO4)·3H2O,"{""K"": 1.0, ""U"": 1.0, ""O"": 9.0, ""P"": 1.0, ""H"": 6.0}",458.141,#FFFFFF,tetragonal,{47},1998.0
Meta-autunite,Ca(UO2)2(PO4)2·6H2O,"{""Ca"": 1.0, ""U"": 2.0, ""O"": 18.0, ""P"": 2.0, ""H"": 12.0}",878.164,#FFFFFF,tetragonal,"{47,49}",2075.0
Metaborite,HBO2,"{""H"": 1.0, ""B"": 1.0, ""O"": 2.0}",43.816,#FFFFFF,cubic,"{25,45}",634.0
Metacinnabar,HgS,"{""Hg"": 1.0, ""S"": 1.0}",232.65,#A9A9A9,cubic,{33},797.0
Metadelrioite,SrCa(VO3)2(OH)2,"{""Sr"": 1.0, ""Ca"": 1.0, ""V"": 2.0, ""O"": 8.0, ""H"": 2.0}",359.59,#FFFFFF,triclinic,"{47,55}",2262.0
Metaheimite,PbCu2(AsO4)(OH)3,"{""Pb"": 1.0, ""Cu"": 2.0, ""As"": 1.0, ""O"": 7.0, ""H"": 3.0}",524.231,#FFFFFF,monoclinic,{},1.0
Metaheinrichite,Ba(UO2)2(AsO4)2·8H2O,"{""Ba"": 1.0, ""U"": 2.0, ""O"": 20.0, ""As"": 2.0, ""H"": 16.0}",1099.342,#FFFFFF,monoclinic,{47},1998.0
Metahewettite,CaV5+6O16·3H2O,"{""Ca"": 1.0, ""V"": 6.0, ""O"": 19.0, ""H"": 6.0}",655.759,#FFFFFF,monoclinic,{47},1998.0
Metahohmannite,Fe3+2O(SO4)2·4H2O,"{""Fe"": 2.0, ""O"": 13.0, ""S"": 2.0, ""H"": 8.0}",391.861,#556B2F,triclinic,{47},1998.0
Metakahlerite,Fe2+(UO2)2(AsO4)2·8H2O,"{""Fe"": 1.0, ""U"": 2.0, ""O"": 20.0, ""As"": 2.0, ""H"": 16.0}",1017.857,#556B2F,triclinic,{47},1998.0
Metakirchheimerite,Co(UO2)2(AsO4)2·8H2O,"{""Co"": 1.0, ""U"": 2.0, ""O"": 20.0, ""As"": 2.0, ""H"": 16.0}",1020.945,#FFFFFF,triclinic,{47},1998.0
Metamunirite,NaV5+O3,"{""Na"": 1.0, ""V"": 1.0, ""O"": 3.0}",121.929,#FFFFFF,orthorhombic,"{47,55,56}",2405.0
Metanatroautunite,Na(UO2)(PO4)·3H2O,"{""Na"": 1.0, ""U"": 1.0, ""O"": 9.0, ""P"": 1.0, ""H"": 6.0}",442.033,#FFFFFF,tetragonal,{47},1998.0
Metanovacekite,Mg(UO2)2(AsO4)2·8H2O,"{""Mg"": 1.0, ""U"": 2.0, ""O"": 20.0, ""As"": 2.0, ""H"": 16.0}",986.317,#FFFFFF,tetragonal,{47},1998.0
Metarauchite,Ni(UO2)2(AsO4)2·8H2O,"{""Ni"": 1.0, ""U"": 2.0, ""O"": 20.0, ""As"": 2.0, ""H"": 16.0}",1020.705,#FFFFFF,triclinic,{47},1998.0
Metarossite,CaV5+2O6·2H2O,"{""Ca"": 1.0, ""V"": 2.0, ""O"": 8.0, ""H"": 4.0}",273.986,#FFFFFF,triclinic,"{47,55}",2262.0
Metasaleeite,Mg(UO2)2(PO4)2·8H2O,"{""Mg"": 1.0, ""U"": 2.0, ""O"": 20.0, ""P"": 2.0, ""H"": 16.0}",898.421,#FFFFFF,unknown,{47},1998.0
Metaschoderite,Al2(PO4)(VO4)·6H2O,"{""Al"": 2.0, ""P"": 1.0, ""O"": 14.0, ""V"": 1.0, ""H"": 12.0}",371.962,#FFFFFF,monoclinic,{47},1998.0
Metaschoepite,(UO2)8O2(OH)12·10H2O,"{""U"": 8.0, ""O"": 40.0, ""H"": 32.0}",2576.456,#ADFF2F,orthorhombic,{47},1998.0
Metasideronatrite,Na2Fe3+(SO4)2(OH)·H2O,"{""Na"": 2.0, ""Fe"": 1.0, ""S"": 2.0, ""O"": 10.0, ""H"": 3.0}",328.959,#556B2F,orthorhombic,{47},1998.0
Metastibnite,Sb2S3,"{""Sb"": 2.0, ""S"": 3.0}",339.7,#A9A9A9,unknown,"{11,12,14,33,56}",1166.0
Metastudtite,UO4·2H2O,"{""U"": 1.0, ""O"": 6.0, ""H"": 4.0}",338.056,#ADFF2F,orthorhombic,"{47,57}",2047.0
Metatamboite,Fe3+3(OH)(H2O)2(SO4)(Te4+O3)3[Te4+O(OH)2](H2O),"{""Fe"": 3.0, ""O"": 20.0, ""H"": 9.0, ""S"": 1.0, ""Te"": 4.0}",1039.047,#556B2F,monoclinic,{47},1998.0
Metathenardite,Na2(SO4),"{""Na"": 2.0, ""S"": 1.0, ""O"": 4.0}",142.036,#FFFF00,hexagonal,{45},424.0
Metatorbernite,Cu(UO2)2(PO4)2·8H2O,"{""Cu"": 1.0, ""U"": 2.0, ""O"": 20.0, ""P"": 2.0, ""H"": 16.0}",937.662,#FFFFFF,monoclinic,{47},1998.0
Metatyuyamunite,Ca(UO2)2(VO4)2·3H2O,"{""Ca"": 1.0, ""U"": 2.0, ""O"": 15.0, ""V"": 2.0, ""H"": 6.0}",864.055,#FFFFFF,orthorhombic,{47},1998.0
Metauramphite,(NH4)2(UO2)2(PO4)2·6H2O,"{""N"": 2.0, ""H"": 20.0, ""U"": 2.0, ""O"": 18.0, ""P"": 2.0}",874.164,#FFFFFF,unknown,{47},1998.0
Metauranocircite,Ba(UO2)2(PO4)2·6H2O,"{""Ba"": 1.0, ""U"": 2.0, ""O"": 18.0, ""P"": 2.0, ""H"": 12.0}",975.416,#FFFFFF,monoclinic,"{21,47}",2077.0
Metauranopilite,(UO2)6(SO4)(OH)10·5H2O,"{""U"": 6.0, ""O"": 31.0, ""S"": 1.0, ""H"": 20.0}",1976.369,#FFFFFF,unknown,"{47,55}",2262.0
Metauranospinite,Ca(UO2)2(AsO4)2·8H2O,"{""Ca"": 1.0, ""U"": 2.0, ""O"": 20.0, ""As"": 2.0, ""H"": 16.0}",1002.09,#FFFFFF,unknown,{47},1998.0
Metauroxite,(UO2)2(C2O4)(OH)2(H2O)2,"{""U"": 2.0, ""O"": 12.0, ""C"": 2.0, ""H"": 6.0}",698.118,#FFFFFF,triclinic,"{53,55}",381.0
Metavanmeersscheite,U(UO2)3(PO4)2(OH)6·2H2O,"{""U"": 4.0, ""O"": 22.0, ""P"": 2.0, ""H"": 10.0}",1376.126,#FFFFFF,orthorhombic,{47},1998.0
Metavanuralite,Al(UO2)2(VO4)2(OH)·8H2O,"{""Al"": 1.0, ""U"": 2.0, ""O"": 21.0, ""V"": 2.0, ""H"": 17.0}",958.041,#FFFFFF,triclinic,{47},1998.0