name,formula,elements,density,color,crystal,pm_ids,gacha_weight
Schoonerite,ZnMn2+Fe2+2Fe3+(PO4)3(OH)2(H2O)7·2H2O,"{""Zn"": 1.0, ""Mn"": 1.0, ""Fe"": 3.0, ""P"": 3.0, ""O"": 23.0, ""H"": 20.0}",768.912,#556B2F,orthorhombic,"{22,47}",9.532e-09
Schorl,NaFe2+3Al6(Si6O18)(BO3)3(OH)3(OH),"{""Na"": 1.0, ""Fe"": 3.0, ""Al"": 6.0, ""Si"": 6.0, ""O"": 31.0, ""B"": 3.0, ""H"": 4.0}",1053.358,#556B2F,hexagonal,"{19,23,26,34,40}",4.6185948e-05
Schorlomite,Ca3Ti2(SiFe3+2)O12,"{""Ca"": 3.0, ""Ti"": 2.0, ""Si"": 1.0, ""Fe"": 2.0, ""O"": 12.0}",547.731,#556B2F,cubic,"{26,31,35,36,40,51}",2.879623e-06
Schreyerite,V3+2Ti4+3O9,"{""V"": 2.0, ""Ti"": 3.0, ""O"": 9.0}",389.476,#FFFFFF,monoclinic,{40},2.821317e-06
Schrockingerite,NaCa3(UO2)(SO4)(CO3)3F·10H2O,"{""Na"": 1.0, ""Ca"": 3.0, ""U"": 1.0, ""O"": 25.0, ""S"": 1.0, ""C"": 3.0, ""F"": 1.0, ""H"": 20.0}",888.48,#FFFFFF,triclinic,"{47,55}",3.761e-09
Schubnelite,Fe3+(V5+O4)·H2O,"{""Fe"": 1.0, ""V"": 1.0, ""O"": 5.0, ""H"": 2.0}",188.798,#556B2F,triclinic,{47},1.5015e-07
Schuetteite,Hg3O2(SO4),"{""Hg"": 3.0, ""O"": 6.0, ""S"": 1.0}",729.824,#FFFF00,hexagonal,"{47,55}",3.761e-09
Schullerite,Ba2Ti2Na2Mg2(Si2O7)2O2F2,"{""Ba"": 2.0, ""Ti"": 2.0, ""Na"": 2.0, ""Mg"": 2.0, ""Si"": 4.0, ""O"": 16.0, ""F"": 2.0}",871.304,#FFFFFF,triclinic,{47},7.508e-09
Schultenite,Pb(AsO3OH),"{""Pb"": 1.0, ""As"": 1.0, ""O"": 4.0, ""H"": 1.0}",347.126,#FFFFFF,monoclinic,{47},1.5015e-07
Schumacherite,Bi3O(VO4)2(OH),"{""Bi"": 3.0, ""O"": 10.0, ""V"": 2.0, ""H"": 1.0}",889.822,#FFFFFF,triclinic,{47},1.5015e-07
Schwartzembergite,Pb2+5H2I3+O6Cl3,"{""Pb"": 5.0, ""H"": 2.0, ""I"": 1.0, ""O"": 6.0, ""Cl"": 3.0}",1367.26,#FFFFFF,tetragonal,{47},1.5015e-07
Sclarite,Zn7(CO3)2(OH)10,"{""Zn"": 7.0, ""C"": 2.0, ""O"": 16.0, ""H"": 10.0}",747.746,#FFFFFF,monoclinic,"{23,47}",1.908944e-06
Scolecite,Ca(Si3Al2)O10·3H2O,"{""Ca"": 1.0, ""Si"": 3.0, ""Al"": 2.0, ""O"": 13.0, ""H"": 6.0}",392.332,#FFFFFF,monoclinic,"{10,14,31}",3.71127e-07
Scorodite,Fe3+(AsO4)·2H2O,"{""Fe"": 1.0, ""As"": 1.0, ""O"": 6.0, ""H"": 4.0}",230.793,#556B2F,orthorhombic,"{47,55}",1.88029e-07
Scorzalite,Fe2+Al2(PO4)2(OH)2,"{""Fe"": 1.0, ""Al"": 2.0, ""P"": 2.0, ""O"": 10.0, ""H"": 2.0}",333.763,#556B2F,monoclinic,"{34,40}",9.42212e-07
Scotlandite,Pb(S4+O3),"{""Pb"": 1.0, ""S"": 1.0, ""O"": 3.0}",287.257,#FFFF00,monoclinic,{47},3.003e-09
Scottyite,BaCu2Si2O7,"{""Ba"": 1.0, ""Cu"": 2.0, ""Si"": 2.0, ""O"": 7.0}",432.585,#FFFFFF,orthorhombic,{32},2.4272e-08
Scrutinyite,PbO2,"{""Pb"": 1.0, ""O"": 2.0}",239.198,#FFFFFF,orthorhombic,{47},1.5015e-07
Seaborgite,LiK2Na6(UO2)(SO4)5(SO3OH)(H2O),"{""Li"": 1.0, ""K"": 2.0, ""Na"": 6.0, ""U"": 1.0, ""O"": 27.0, ""S"": 6.0, ""H"": 3.0}",1088.463,#FFFFFF,triclinic,{47},3.003e-09
Seamanite,Mn2+3B(OH)4(PO4)(OH)2,"{""Mn"": 3.0, ""B"": 1.0, ""O"": 10.0, ""H"": 6.0, ""P"": 1.0}",372.636,#FFFFFF,orthorhombic,{47},7.508e-09
Searlesite,NaBSi2O5(OH)2,"{""Na"": 1.0, ""B"": 1.0, ""Si"": 2.0, ""O"": 7.0, ""H"": 2.0}",203.979,#FFFFFF,monoclinic,"{25,50}",8.4249e-08
Sederholmite,NiSe,"{""Ni"": 1.0, ""Se"": 1.0}",137.664,#7FFF00,hexagonal,{33},1.2547e-08
Sedovite,U4+(MoO4)2,"{""U"": 1.0, ""Mo"": 2.0, ""O"": 8.0}",557.922,#ADFF2F,orthorhombic,{47},1.5015e-07
Seeligerite,Pb3(IO4)Cl3,"{""Pb"": 3.0, ""I"": 1.0, ""O"": 4.0, ""Cl"": 3.0}",918.846,#FFFFFF,orthorhombic,{47},1.5015e-07
Segelerite,CaMgFe3+(PO4)2(OH)·4H2O,"{""Ca"": 1.0, ""Mg"": 1.0, ""Fe"": 1.0, ""P"": 2.0, ""O"": 13.0, ""H"": 9.0}",399.235,#556B2F,orthorhombic,{47},1.5015e-08
Segerstromite,Ca3(As5+O4)2[As3+(OH)3]2,"{""Ca"": 3.0, ""As"": 4.0, ""O"": 14.0, ""H"": 6.0}",649.956,#FFFFFF,cubic,{47},1.5015e-07
Segnitite,PbFe3+3(AsO4)(AsO3OH)(OH)6,"{""Pb"": 1.0, ""Fe"": 3.0, ""As"": 2.0, ""O"": 14.0, ""H"": 7.0}",755.621,#556B2F,unknown,{47},1.5015e-07
Seidozerite,Na2Zr2Na2MnTi(Si2O7)2O2F2,"{""Na"": 4.0, ""Zr"": 2.0, ""Mn"": 1.0, ""Ti"": 1.0, ""Si"": 4.0, ""O"": 16.0, ""F"": 2.0}",783.533,#FFFFFF,monoclinic,{35},6.89e-10
Seifertite,SiO2,"{""Si"": 1.0, ""O"": 2.0}",60.083,#FFFFFF,orthorhombic,{6},1.102439e-06
Seinajokite,FeSb2,"{""Fe"": 1.0, ""Sb"": 2.0}",299.365,#8B4513,orthorhombic,{33},1.2547e-08
Sejkoraite-(Y),Y2[(UO2)8O6(SO4)4(OH)2]·26H2O,"{""Y"": 2.0, ""U"": 8.0, ""O"": 66.0, ""S"": 4.0, ""H"": 54.0}",3320.658,#FFFFFF,triclinic,"{47,55}",3.761e-09
Sekaninaite,Fe2+2Al4Si5O18,"{""Fe"": 2.0, ""Al"": 4.0, ""Si"": 5.0, ""O"": 18.0}",648.025,#556B2F,orthorhombic,"{34,41}",1.221188e-06
Selenium,Se,"{""Se"": 1.0}",78.971,#FFFFFF,monoclinic,"{45,47,50,54}",2.531e-07
Selenodantopaite,Ag5Bi13Se22,"{""Ag"": 5.0, ""Bi"": 13.0, ""Se"": 22.0}",4993.452,#C0C0C0,monoclinic,{},1e-06
Selenojalpaite,Ag3CuSe2,"{""Ag"": 3.0, ""Cu"": 1.0, ""Se"": 2.0}",545.098,#00BFFF,tetragonal,{33},1.2547e-08
Selenojunoite,Cu2Pb3Bi8Se16,"{""Cu"": 2.0, ""Pb"": 3.0, ""Bi"": 8.0, ""Se"": 16.0}",3684.068,#FFFFFF,monoclinic,{},1e-06
Selenolaurite,RuSe2,"{""Ru"": 1.0, ""Se"": 2.0}",259.012,#FFFFFF,cubic,{7},8.1301e-08
Selenostephanite,Ag5SbSe4,"{""Ag"": 5.0, ""Sb"": 1.0, ""Se"": 4.0}",976.994,#C0C0C0,orthorhombic,{33},1.2547e-08
Seligmannite,CuPbAsS3,"{""Cu"": 1.0, ""Pb"": 1.0, ""As"": 1.0, ""S"": 3.0}",441.848,#708090,orthorhombic,{33},2.51e-10
Sellaite,MgF2,"{""Mg"": 1.0, ""F"": 2.0}",62.301,#FFFFFF,tetragonal,"{19,25,31,36,45,50,54}",1.758903e-06
Selwynite,NaKBeZr2(PO4)4·2H2O,"{""Na"": 1.0, ""K"": 1.0, ""Be"": 1.0, ""Zr"": 2.0, ""P"": 4.0, ""O"": 18.0, ""H"": 4.0}",669.4582,#FFFFFF,tetragonal,{22},4.049e-09
Semseyite,Pb9Sb8S21,"{""Pb"": 9.0, ""Sb"": 8.0, ""S"": 21.0}",3512.14,#708090,monoclinic,{33},2.51e-10
Senandorite,AgPbSb3S6,"{""Ag"": 1.0, ""Pb"": 1.0, ""Sb"": 3.0, ""S"": 6.0}",872.71,#708090,orthorhombic,{33},2.51e-10
Senarmontite,Sb2O3,"{""Sb"": 2.0, ""O"": 3.0}",291.517,#A9A9A9,cubic,{47},1.5015e-07
Senegalite,Al2(PO4)(OH)3·H2O,"{""Al"": 2.0, ""P"": 1.0, ""O"": 8.0, ""H"": 5.0}",217.97,#FFFFFF,orthorhombic,{47},1.5015e-08
Sengierite,Cu2(UO2)2(VO4)2(OH)2·6H2O,"{""Cu"": 2.0, ""U"": 2.0, ""O"": 20.0, ""V"": 2.0, ""H"": 14.0}",1039.128,#FFFFFF,monoclinic,{47},1.5015e-07
Senkevichite,CsNaKCa2TiOSi7O18(OH),"{""Cs"": 1.0, ""Na"": 1.0, ""K"": 1.0, ""Ca"": 2.0, ""Ti"": 1.0, ""O"": 20.0, ""Si"": 7.0, ""H"": 1.0}",840.604,#FFFFFF,triclinic,{35},4.132e-09
Sepiolite,Mg4Si6O15(OH)2·6H2O,"{""Mg"": 4.0, ""Si"": 6.0, ""O"": 23.0, ""H"": 14.0}",647.819,#FFFFFF,orthorhombic,"{16,17,23,25,31,48,49}",3.148312e-06
Serandite,NaMn2+2Si3O8(OH),"{""Na"": 1.0, ""Mn"": 2.0, ""Si"": 3.0, ""O"": 9.0, ""H"": 1.0}",362.12,#FFFFFF,triclinic,"{32,35}",1.902e-09
Serendibite,Ca4[Mg6Al6]O4[Si6B3Al3O36],"{""Ca"": 4.0, ""Mg"": 6.0, ""Al"": 9.0, ""O"": 40.0, ""Si"": 6.0, ""B"": 3.0}",1389.88,#FFFFFF,triclinic,{23},1.758794e-06
Sergeevite,Ca2Mg11(CO3)9(HCO3)4(OH)4·6H2O,"{""Ca"": 2.0, ""Mg"": 11.0, ""C"": 13.0, ""O"": 49.0, ""H"": 20.0}",1307.765,#FFFFFF,hexagonal,{47},1.5015e-07
Sergevanite,Na15(Ca3Mn3)(Na2Fe)Zr3Si26O72(OH)3·H2O,"{""Na"": 17.0, ""Ca"": 3.0, ""Mn"": 3.0, ""Fe"": 1.0, ""Zr"": 3.0, ""Si"": 26.0, ""O"": 76.0, ""H"": 5.0}",2956.569,#556B2F,hexagonal,{35},6.89e-10
Sergeysmirnovite,MgZn2(PO4)2·4H2O,"{""Mg"": 1.0, ""Zn"": 2.0, ""P"": 2.0, ""O"": 12.0, ""H"": 8.0}",417.065,#FFFFFF,orthorhombic,{34},1.773e-09
Serrabrancaite,Mn(PO4)·H2O,"{""Mn"": 1.0, ""P"": 1.0, ""O"": 5.0, ""H"": 2.0}",167.923,#FFFFFF,monoclinic,"{34,47}",8.394e-09
Sewardite,CaFe3+2(AsO4)2(OH)2,"{""Ca"": 1.0, ""Fe"": 2.0, ""As"": 2.0, ""O"": 10.0, ""H"": 2.0}",463.618,#556B2F,orthorhombic,{47},1.5015e-07
Shabaite-(Nd),CaNd2(UO2)(CO3)4(OH)2·6H2O,"{""Ca"": 1.0, ""Nd"": 2.0, ""U"": 1.0, ""O"": 22.0, ""C"": 4.0, ""H"": 14.0}",980.722,#FFFFFF,monoclinic,{47},1.5015e-07
Shabynite,Mg5(BO3)(OH)5Cl2·4H2O,"{""Mg"": 5.0, ""B"": 1.0, ""O"": 12.0, ""H"": 13.0, ""Cl"": 2.0}",408.327,#FFFFFF,unknown,{23},1.758794e-06
Shagamite,KFe11O17,"{""K"": 1.0, ""Fe"": 11.0, ""O"": 17.0}",925.376,#8B4513,hexagonal,{51},1.09375e-07
Shakhdaraite-(Y),ScYNb2O8,"{""Sc"": 1.0, ""Y"": 1.0, ""Nb"": 2.0, ""O"": 8.0}",447.666,#FFFFFF,monoclinic,{34},1.773e-08
Shakhovite,Hg1+4Sb5+O3(OH)3,"{""Hg"": 4.0, ""Sb"": 1.0, ""O"": 6.0, ""H"": 3.0}",1023.138,#FFFFFF,monoclinic,"{47,57}",3.54232e-07
Shandite,Ni3Pb2S2,"{""Ni"": 3.0, ""Pb"": 2.0, ""S"": 2.0}",654.599,#708090,hexagonal,{33},2.51e-10
Shannonite,Pb2O(CO3),"{""Pb"": 2.0, ""O"": 4.0, ""C"": 1.0}",490.407,#FFFFFF,orthorhombic,"{47,55}",1.88029e-07
Sharpite,Ca(UO2)3(CO3)4·3H2O,"{""Ca"": 1.0, ""U"": 3.0, ""O"": 21.0, ""C"": 4.0, ""H"": 6.0}",1144.239,#FFFFFF,orthorhombic,{47},1.5015e-07
Sharyginite,Ca3TiFe2O8,"{""Ca"": 3.0, ""Ti"": 1.0, ""Fe"": 2.0, ""O"": 8.0}",407.783,#556B2F,orthorhombic,"{31,40,51}",2.853181e-06
Shasuite,CaNi3(P2O7)2,"{""Ca"": 1.0, ""Ni"": 3.0, ""P"": 4.0, ""O"": 14.0}",564.039,#FFFFFF,monoclinic,{51},7.812e-09
Shattuckite,Cu5(SiO3)4(OH)2,"{""Cu"": 5.0, ""Si"": 4.0, ""O"": 14.0, ""H"": 2.0}",656.072,#FFFFFF,orthorhombic,{47},1.5015e-07
Shcherbakovite,K2NaTi2O(OH)Si4O12,"{""K"": 2.0, ""Na"": 1.0, ""Ti"": 2.0, ""O"": 14.0, ""H"": 1.0, ""Si"": 4.0}",534.254,#FFFFFF,orthorhombic,"{7,35}",2.8522e-08
Shcherbinaite,V2O5,"{""V"": 2.0, ""O"": 5.0}",181.879,#FFFFFF,orthorhombic,"{45,47,55}",2.11614e-07
Shchurovskyite,K2CaCu6O2(AsO4)4,"{""K"": 2.0, ""Ca"": 1.0, ""Cu"": 6.0, ""O"": 18.0, ""As"": 4.0}",1087.22,#FFFFFF,monoclinic,{45},2.3585e-08
Sheldrickite,NaCa3(CO3)2F3·H2O,"{""Na"": 1.0, ""Ca"": 3.0, ""C"": 2.0, ""O"": 7.0, ""F"": 3.0, ""H"": 2.0}",338.249,#FFFFFF,hexagonal,{35},6.89e-10
Shenganfuite,PbTe4+3O5(OH)Cl3(H2O),"{""Pb"": 1.0, ""Te"": 3.0, ""O"": 7.0, ""H"": 3.0, ""Cl"": 3.0}",811.367,#FFFFFF,triclinic,{},1e-06
Shenzhuangite,NiFeS2,"{""Ni"": 1.0, ""Fe"": 1.0, ""S"": 2.0}",178.658,#DAA520,tetragonal,{6},9.76e-10
Shibkovite,K2Ca2(Zn3Si12)O30,"{""K"": 2.0, ""Ca"": 2.0, ""Zn"": 3.0, ""Si"": 12.0, ""O"": 30.0}",1171.482,#FFFFFF,hexagonal,{35},1.3774e-08
Shigaite,Mn6Al3(OH)18[Na(H2O)6](SO4)2·6H2O,"{""Mn"": 6.0, ""Al"": 3.0, ""O"": 38.0, ""H"": 42.0, ""Na"": 1.0, ""S"": 2.0}",1147.982,#FFFFFF,hexagonal,"{32,47}",3.488e-09
Shijiangshanite,Pb3CaAl(Si5O14)(OH)3·3H2O,"{""Pb"": 3.0, ""Ca"": 1.0, ""Al"": 1.0, ""Si"": 5.0, ""O"": 20.0, ""H"": 9.0}",1158.137,#FFFFFF,hexagonal,{},1e-06
Shilovite,Cu(NH3)4(NO3)2,"{""Cu"": 1.0, ""N"": 6.0, ""H"": 12.0, ""O"": 6.0}",255.678,#FFFFFF,orthorhombic,{52},1.38889e-07
Shimazakiite,Ca2B2O5,"{""Ca"": 2.0, ""B"": 2.0, ""O"": 5.0}",181.771,#FFFFFF,orthorhombic,{23},1.758794e-06
Shinarumpite,[Co(H2O)6][(UO2)(SO4)2(H2O)]·4H2O,"{""Co"": 1.0, ""H"": 22.0, ""O"": 21.0, ""U"": 1.0, ""S"": 2.0}",719.238,#FFFFFF,monoclinic,{47},3.003e-09
Shinichengite,Ca5[BSi2O7(OH)2]2·6H2O,"{""Ca"": 5.0, ""B"": 2.0, ""Si"": 4.0, ""O"": 24.0, ""H"": 16.0}",734.454,#FFFFFF,triclinic,{},1e-06
Shiranuiite,Cu1+(Rh3+Rh4+)S4,"{""Cu"": 1.0, ""Rh"": 2.0, ""S"": 4.0}",397.606,#A9A9A9,cubic,{},2e-08
Shirokshinite,K(Mg2Na)Si4O10F2,"{""K"": 1.0, ""Mg"": 2.0, ""Na"": 1.0, ""Si"": 4.0, ""O"": 10.0, ""F"": 2.0}",421.024,#FFFFFF,monoclinic,{35},6.89e-10
Shirozulite,KMn2+3(Si3Al)O10(OH)2,"{""K"": 1.0, ""Mn"": 3.0, ""Si"": 3.0, ""Al"": 1.0, ""O"": 12.0, ""H"": 2.0}",509.153,#FFFFFF,monoclinic,{32},1.214e-09
Shkatulkalite,Na2Nb2Na3Ti(Si2O7)2O2(FO)(H2O)4(H2O)3,"{""Na"": 5.0, ""Nb"": 2.0, ""Ti"": 1.0, ""Si"": 4.0, ""O"": 24.0, ""F"": 1.0, ""H"": 14.0}",878.055,#FFFFFF,monoclinic,{35},6.89e-10
Shlykovite,KCa[Si4O9(OH)]·3H2O,"{""K"": 1.0, ""Ca"": 1.0, ""Si"": 4.0, ""O"": 13.0, ""H"": 7.0}",406.559,#FFFFFF,monoclinic,{35},1.7906e-08
Shojiite,Na(NaMg)Mg5Si8O22(OH)2,"{""Na"": 2.0, ""Mg"": 6.0, ""Si"": 8.0, ""O"": 24.0, ""H"": 2.0}",802.482,#FFFFFF,monoclinic,{},1.3e-06
Shomiokite-(Y),Na3Y(CO3)3·3H2O,"{""Na"": 3.0, ""Y"": 1.0, ""C"": 3.0, ""O"": 12.0, ""H"": 6.0}",391.945,#FFFFFF,orthorhombic,{35},1.3774e-08
Shortite,Na2Ca2(CO3)3,"{""Na"": 2.0, ""Ca"": 2.0, ""C"": 3.0, ""O"": 9.0}",306.16,#FFFFFF,orthorhombic,"{7,24,35,36}",2.64574e-07
Shosanbetsuite,Ag3Sn,"{""Ag"": 3.0, ""Sn"": 1.0}",442.32,#C0C0C0,orthorhombic,{33},1.2547e-08
Shuangfengite,IrTe2,"{""Ir"": 1.0, ""Te"": 2.0}",447.42,#FFFFFF,hexagonal,{33},1.2547e-08
Shubnikovite,Ca2Cu8(AsO4)6Cl(OH)·7H2O (?),"{""Ca"": 2.0, ""Cu"": 8.0, ""As"": 6.0, ""O"": 32.0, ""Cl"": 1.0, ""H"": 15.0}",1600.594,#FFFFFF,unknown,{47},1.5015e-07
Shuiskite-(Cr),Ca2CrCr2[SiO4][Si2O6(OH)](OH)2O,"{""Ca"": 2.0, ""Cr"": 3.0, ""Si"": 3.0, ""O"": 14.0, ""H"": 3.0}",547.409,#FFFFFF,monoclinic,"{7,23,47}",1.990245e-06
Shuiskite-(Mg),Ca2MgCr2(Si2O7)(SiO4)(OH)2·H2O,"{""Ca"": 2.0, ""Mg"": 1.0, ""Cr"": 2.0, ""Si"": 3.0, ""O"": 14.0, ""H"": 4.0}",520.726,#FFFFFF,monoclinic,"{7,23}",1.840095e-06
Shulamitite,Ca3TiFe3+AlO8,"{""Ca"": 3.0, ""Ti"": 1.0, ""Fe"": 1.0, ""Al"": 1.0, ""O"": 8.0}",378.92,#556B2F,orthorhombic,{51},2.3438e-08
Shumwayite,[(UO2)(SO4)(H2O)2]2·H2O,"{""U"": 2.0, ""O"": 17.0, ""S"": 2.0, ""H"": 10.0}",822.243,#FFFFFF,monoclinic,{47},3.003e-09
Shuvalovite,K2(Ca2Na)(SO4)3F,"{""K"": 2.0, ""Ca"": 2.0, ""Na"": 1.0, ""S"": 3.0, ""O"": 12.0, ""F"": 1.0}",488.508,#FFFFFF,orthorhombic,{45},4.72e-10
Sibirskite,CaH(BO3),"{""Ca"": 1.0, ""H"": 1.0, ""B"": 1.0, ""O"": 3.0}",99.893,#FFFFFF,monoclinic,{23},1.758794e-06
Siderite,Fe(CO3),"{""Fe"": 1.0, ""C"": 1.0, ""O"": 3.0}",115.853,#8B4513,hexagonal,"{17,21,22,23,24,31,36,44,47,50,53,55}",3.53875e-06
Sideronatrite,Na2Fe3+(SO4)2(OH)·3H2O,"{""Na"": 2.0, ""Fe"": 1.0, ""S"": 2.0, ""O"": 12.0, ""H"": 7.0}",364.989,#556B2F,orthorhombic,{47},3.003e-09
Siderophyllite,KFe2+2Al(Si2Al2)O10(OH)2,"{""K"": 1.0, ""Fe"": 2.0, ""Al"": 3.0, ""Si"": 2.0, ""O"": 12.0, ""H"": 2.0}",481.908,#556B2F,hexagonal,"{8,9,19,20,31,34,35,40}",7.1654231e-05
Siderotil,Fe(SO4)·5H2O,"{""Fe"": 1.0, ""S"": 1.0, ""O"": 9.0, ""H"": 10.0}",241.976,#556B2F,triclinic,"{45,47,50,54,55}",5.82e-09
Sidorenkite,Na3Mn(PO4)(CO3),"{""Na"": 3.0, ""Mn"": 1.0, ""P"": 1.0, ""O"": 7.0, ""C"": 1.0}",278.886,#FFFFFF,monoclinic,"{35,36,50}",4.238e-09
Sidorovite,PtFe3,"{""Pt"": 1.0, ""Fe"": 3.0}",362.615,#8B4513,cubic,{},1e-06
Sidpietersite,Pb2+4(S2O3)O2(OH)2,"{""Pb"": 4.0, ""S"": 2.0, ""O"": 7.0, ""H"": 2.0}",1006.929,#FFFFFF,triclinic,"{47,56}",4.402e-09
Sidwillite,MoO3·2H2O,"{""Mo"": 1.0, ""O"": 5.0, ""H"": 4.0}",179.977,#FFFFFF,monoclinic,{47},1.5015e-07
Siegenite,CoNi2S4,"{""Co"": 1.0, ""Ni"": 2.0, ""S"": 4.0}",304.559,#A9A9A9,cubic,{12},1.55e-09
Sieleckiite,Cu3Al4(PO4)2(OH)12·2H2O,"{""Cu"": 3.0, ""Al"": 4.0, ""P"": 2.0, ""O"": 22.0, ""H"": 16.0}",728.62,#FFFFFF,triclinic,{47},1.5015e-08
Sigismundite,BaFe2+(CaNa2)Fe2+13Al(PO4)11(PO3OH)(OH)2,"{""Ba"": 1.0, ""Fe"": 14.0, ""Ca"": 1.0, ""Na"": 2.0, ""Al"": 1.0, ""P"": 12.0, ""O"": 50.0, ""H"": 3.0}",2206.862,#556B2F,monoclinic,{34},1.773e-09
Sigloite,Fe3+Al2(PO4)2(OH)3·7H2O,"{""Fe"": 1.0, ""Al"": 2.0, ""P"": 2.0, ""O"": 18.0, ""H"": 17.0}",476.875,#556B2F,triclinic,"{31,47}",1.7824e-08
Sigogglinite,[Pb6Zn(OH)8](SO4)3·3H2O,"{""Pb"": 6.0, ""Zn"": 1.0, ""O"": 23.0, ""H"": 14.0, ""S"": 3.0}",1786.849,#FFFFFF,monoclinic,{},2e-08
Siidraite,Pb2Cu(OH)2I3,"{""Pb"": 2.0, ""Cu"": 1.0, ""O"": 2.0, ""H"": 2.0, ""I"": 3.0}",892.66,#FFFFFF,orthorhombic,{47},1.5015e-07
Silesiaite,Ca4Fe3+2Sn2(Si2O7)2(Si2O6OH)2,"{""Ca"": 4.0, ""Fe"": 2.0, ""Sn"": 2.0, ""Si"": 8.0, ""O"": 28.0, ""H"": 2.0}",1184.09,#556B2F,triclinic,{34},1.773e-08
Silhydrite,Si3O6·H2O,"{""Si"": 3.0, ""O"": 7.0, ""H"": 2.0}",198.264,#FFFFFF,orthorhombic,{48},4.08451e-07
Silicocarnotite,Ca5[(PO4)(SiO4)](PO4),"{""Ca"": 5.0, ""P"": 2.0, ""O"": 12.0, ""Si"": 1.0}",482.411,#FFFFFF,orthorhombic,{51},7.812e-09
Silicon,Si,"{""Si"": 1.0}",28.085,#FFFFFF,orthorhombic,"{26,29,33,36,38,50}",3.7170341e-05
Siligiite,[Pb(H2O)5(SO4)][Zn9(OH)18],"{""Pb"": 1.0, ""H"": 28.0, ""O"": 27.0, ""S"": 1.0, ""Zn"": 9.0}",1287.877,#FFFFFF,monoclinic,{},2e-08
Silinaite,NaLiSi2O5·2H2O,"{""Na"": 1.0, ""Li"": 1.0, ""Si"": 2.0, ""O"": 7.0, ""H"": 4.0}",202.125,#FFFFFF,monoclinic,{9},7.874e-08
Sillenite,Bi12SiO20,"{""Bi"": 12.0, ""Si"": 1.0, ""O"": 20.0}",2855.825,#D2B48C,cubic,"{26,34}",5.773e-08
Sillimanite,Al2SiO5,"{""Al"": 2.0, ""Si"": 1.0, ""O"": 5.0}",162.044,#FFFFFF,orthorhombic,"{26,36,38,40}",5.9342343e-05
Silver,Ag,"{""Ag"": 1.0}",107.87,#C0C0C0,hexagonal,"{7,33,36,38,47}",3.70955e-07
Silvialite,Ca4Al6Si6O24(SO4),"{""Ca"": 4.0, ""Al"": 6.0, ""Si"": 6.0, ""O"": 28.0, ""S"": 1.0}",970.746,#FFFFFF,tetragonal,"{16,23,25,31,34,40}",2.27542e-07
Simferite,LiMg(PO4),"{""Li"": 1.0, ""Mg"": 1.0, ""P"": 1.0, ""O"": 4.0}",126.215,#FFFFFF,orthorhombic,{34},1.773e-09
Simmonsite,Na2LiAlF6,"{""Na"": 2.0, ""Li"": 1.0, ""Al"": 1.0, ""F"": 6.0}",193.89,#FFFFFF,monoclinic,{22},2.024e-09
Simonellite,C19H24,"{""C"": 19.0, ""H"": 24.0}",252.401,#FFFFFF,orthorhombic,{50},3.663e-08
Simonite,TlHgAs3S6,"{""Tl"": 1.0, ""Hg"": 1.0, ""As"": 3.0, ""S"": 6.0}",822.096,#FFD700,monoclinic,{33},2.51e-10
Simonkolleite,Zn5(OH)8Cl2·H2O,"{""Zn"": 5.0, ""O"": 9.0, ""H"": 10.0, ""Cl"": 2.0}",551.871,#FFFFFF,hexagonal,"{47,56}",2.2008e-07
Simplotite,CaV4+4O9·5H2O,"{""Ca"": 1.0, ""V"": 4.0, ""O"": 14.0, ""H"": 10.0}",477.912,#FFFFFF,monoclinic,"{47,53}",2.3562e-07
Simpsonite,Al4Ta3O13(OH),"{""Al"": 4.0, ""Ta"": 3.0, ""O"": 14.0, ""H"": 1.0}",875.772,#FFFFFF,hexagonal,{34},1.773e-08
Sincosite,Ca(VO)2(PO4)2·4H2O,"{""Ca"": 1.0, ""V"": 2.0, ""O"": 14.0, ""P"": 2.0, ""H"": 8.0}",435.96,#FFFFFF,triclinic,"{47,50}",1.8678e-08
Sinhalite,MgAl(BO4),"{""Mg"": 1.0, ""Al"": 1.0, ""B"": 1.0, ""O"": 4.0}",126.093,#FFFFFF,orthorhombic,{23},1.758794e-06
Sinjarite,CaCl2·2H2O,"{""Ca"": 1.0, ""Cl"": 2.0, ""H"": 4.0, ""O"": 2.0}",147.008,#FFFFFF,orthorhombic,"{25,50,54}",1.26984e-07
Sinkankasite,Mn2+Al(PO3OH)2(OH)·6H2O,"{""Mn"": 1.0, ""Al"": 1.0, ""P"": 2.0, ""O"": 15.0, ""H"": 15.0}",398.973,#FFFFFF,triclinic,{22},2.024e-09
Sinnerite,Cu6As4S9,"{""Cu"": 6.0, ""As"": 4.0, ""S"": 9.0}",969.504,#FFD700,triclinic,{33},2.51e-10
Sinoite,Si2N2O,"{""Si"": 2.0, ""N"": 2.0, ""O"": 1.0}",100.183,#FFFFFF,orthorhombic,"{4,5}",3.19149e-07
Sitinakite,KNa2Ti4Si2O13(OH)·4H2O,"{""K"": 1.0, ""Na"": 2.0, ""Ti"": 4.0, ""Si"": 2.0, ""O"": 18.0, ""H"": 9.0}",629.77,#FFFFFF,tetragonal,{22},1.2146e-08
Siudaite,Na8(Mn2+2Na)Ca6Fe3+3Zr3NbSi25O74(OH)2Cl·5H2O,"{""Na"": 9.0, ""Mn"": 2.0, ""Ca"": 6.0, ""Fe"": 3.0, ""Zr"": 3.0, ""Nb"": 1.0, ""Si"": 25.0, ""O"": 81.0, ""H"": 12.0, ""Cl"": 1.0}",3136.957,#556B2F,hexagonal,{35},6.89e-10
Siwaqaite,Ca6Al2(CrO4)3(OH)12·26H2O,"{""Ca"": 6.0, ""Al"": 2.0, ""Cr"": 3.0, ""O"": 50.0, ""H"": 64.0}",1314.882,#FFFFFF,hexagonal,{47},1.5015e-07
Skachaite,CaCo(CO3)2,"{""Ca"": 1.0, ""Co"": 1.0, ""C"": 2.0, ""O"": 6.0}",219.027,#FFFFFF,hexagonal,{},1e-06
Skaergaardite,PdCu,"{""Pd"": 1.0, ""Cu"": 1.0}",169.966,#00BFFF,cubic,{37},7.4074e-08
Skinnerite,Cu3SbS3,"{""Cu"": 3.0, ""Sb"": 1.0, ""S"": 3.0}",408.578,#A9A9A9,monoclinic,{33},2.51e-10
Skippenite,Bi2Se2Te,"{""Bi"": 2.0, ""Se"": 2.0, ""Te"": 1.0}",703.502,#D2B48C,hexagonal,{33},1.2547e-08
Sklodowskite,Mg(UO2)2(SiO3OH)2·6H2O,"{""Mg"": 1.0, ""U"": 2.0, ""O"": 18.0, ""Si"": 2.0, ""H"": 14.0}",858.629,#FFFFFF,monoclinic,{47},1.5015e-07
Skogbyite,Zr(Mg2Mn3+ 4)SiO12,"{""Zr"": 1.0, ""Mg"": 2.0, ""Mn"": 4.0, ""Si"": 1.0, ""O"": 12.0}",579.659,#FFFFFF,tetragonal,{},5e-08
Skorpionite,Ca3Zn2(PO4)2(CO3)(OH)2·H2O,"{""Ca"": 3.0, ""Zn"": 2.0, ""P"": 2.0, ""O"": 14.0, ""C"": 1.0, ""H"": 4.0}",552.971,#FFFFFF,monoclinic,{47},1.5015e-08
Skutterudite,CoAs3,"{""Co"": 1.0, ""As"": 3.0}",283.699,#4169E1,cubic,"{33,36,38}",1.39504e-07
Slavikite,(H3O)3Mg6Fe15(SO4)21(OH)18·98H2O,"{""H"": 223.0, ""O"": 203.0, ""Mg"": 6.0, ""Fe"": 15.0, ""S"": 21.0}",5129.346,#556B2F,hexagonal,{47},3.003e-09
Slavkovite,Cu13(AsO4)6(AsO3OH)4·23H2O,"{""Cu"": 13.0, ""As"": 10.0, ""O"": 63.0, ""H"": 50.0}",2633.655,#FFFFFF,triclinic,"{47,55}",1.88029e-07
Slawsonite,Sr(Al2Si2O8),"{""Sr"": 1.0, ""Al"": 2.0, ""Si"": 2.0, ""O"": 8.0}",325.746,#FFFFFF,triclinic,"{31,32}",5.2362e-08
Slikite,Zn2Mg(CO3)2(OH)2·4H2O,"{""Zn"": 2.0, ""Mg"": 1.0, ""C"": 2.0, ""O"": 12.0, ""H"": 10.0}",381.155,#FFFFFF,triclinic,{47},1.5015e-07
Slottaite,SrFe3+3(PO4)(SO4)(OH)6,"{""Sr"": 1.0, ""Fe"": 3.0, ""P"": 1.0, ""O"": 14.0, ""S"": 1.0, ""H"": 6.0}",548.223,#556B2F,hexagonal,{},2e-08
Slyudyankaite,Na28Ca4(Si24Al24O96)(SO4)6(S6)1/3(CO2)·2H2O,"{""Na"": 28.0, ""Ca"": 4.0, ""Si"": 24.0, ""Al"": 24.0, ""O"": 124.0, ""S"": 12.0, ""C"": 1.0, ""H"": 4.0}",4510.279,#FFFFFF,triclinic,{35},2.75e-10