name,formula,elements,density,color,crystal_system,dna
Creaseyite,Cu2Pb2Fe3+2Si5O17·6H2O,"{""Cu"": 2.0, ""Pb"": 2.0, ""Fe"": 2.0, ""Si"": 5.0, ""O"": 23.0, ""H"": 12.0}",1173.75,#556B2F,orthorhombic,"{""system"": ""orthorhombic"", ""scale"": [0.8, 1.0, 1.2], ""optical"": {""transparent"": 0, ""refraction"": 0.0, ""birefringence"": 0.0}}"
Creedite,Ca3Al2(SO4)(OH)2F8·2H2O,"{""Ca"": 3.0, ""Al"": 2.0, ""S"": 1.0, ""O"": 8.0, ""H"": 6.0, ""F"": 8.0}",492.31,#FFFFFF,monoclinic,"{""system"": ""monoclinic"", ""scale"": [0.7, 1.0, 1.3], ""optical"": {""transparent"": 1, ""refraction"": 1.5, ""birefringence"": 0.01}}"
Criddleite,Ag2Au3TlSb10S10,"{""Ag"": 2.0, ""Au"": 3.0, ""Tl"": 1.0, ""Sb"": 10.0, ""S"": 10.0}",2549.23,#A9A9A9,monoclinic,"{""system"": ""monoclinic"", ""scale"": [0.7, 1.0, 1.3], ""optical"": {""transparent"": 0, ""refraction"": 0.0, ""birefringence"": 0.0}}"
Crimsonite,PbFe3+2(PO4)2(OH)2,"{""Pb"": 1.0, ""Fe"": 2.0, ""P"": 2.0, ""O"": 10.0, ""H"": 2.0}",542.86,#556B2F,orthorhombic,"{""system"": ""orthorhombic"", ""scale"": [0.8, 1.0, 1.2], ""optical"": {""transparent"": 0, ""refraction"": 0.0, ""birefringence"": 0.0}}"
Cristobalite,SiO2,"{""Si"": 1.0, ""O"": 2.0}",60.09,#FFFFFF,orthorhombic,"{""system"": ""orthorhombic"", ""scale"": [0.8, 1.0, 1.2], ""optical"": {""transparent"": 1, ""refraction"": 1.5, ""birefringence"": 0.01}}"
Crocobelonite,CaFe3+2O(PO4)2,"{""Ca"": 1.0, ""Fe"": 2.0, ""O"": 9.0, ""P"": 2.0}",357.72,#556B2F,orthorhombic,"{""system"": ""orthorhombic"", ""scale"": [0.8, 1.0, 1.2], ""optical"": {""transparent"": 0, ""refraction"": 0.0, ""birefringence"": 0.0}}"
Crocoite,Pb(CrO4),"{""Pb"": 1.0, ""Cr"": 1.0, ""O"": 4.0}",323.2,#228B22,monoclinic,"{""system"": ""monoclinic"", ""scale"": [0.7, 1.0, 1.3], ""optical"": {""transparent"": 0, ""refraction"": 0.0, ""birefringence"": 0.0}}"
Crookesite,Cu7TlSe4,"{""Cu"": 7.0, ""Tl"": 1.0, ""Se"": 4.0}",965.07,#00BFFF,tetragonal,"{""system"": ""tetragonal"", ""scale"": [1.0, 1.0, 1.4], ""optical"": {""transparent"": 0, ""refraction"": 0.0, ""birefringence"": 0.0}}"
Cryolite,Na2NaAlF6,"{""Na"": 3.0, ""Al"": 1.0, ""F"": 6.0}",209.95,#FFFFFF,monoclinic,"{""system"": ""monoclinic"", ""scale"": [0.7, 1.0, 1.3], ""optical"": {""transparent"": 1, ""refraction"": 1.5, ""birefringence"": 0.01}}"
Cryolithionite,Na3Al2(LiF4)3,"{""Na"": 3.0, ""Al"": 2.0, ""Li"": 3.0, ""F"": 12.0}",371.75,#FFFFFF,cubic,"{""system"": ""cubic"", ""scale"": [1.0, 1.0, 1.0], ""optical"": {""transparent"": 1, ""refraction"": 1.5, ""birefringence"": 0.0}}"
Cryptochalcite,K2Cu5O(SO4)5,"{""K"": 2.0, ""Cu"": 5.0, ""O"": 21.0, ""S"": 5.0}",892.25,#FFFFFF,triclinic,"{""system"": ""triclinic"", ""scale"": [0.7, 1.0, 1.3], ""optical"": {""transparent"": 1, ""refraction"": 1.5, ""birefringence"": 0.01}}"
Cryptohalite,(NH4)2SiF6,"{""N"": 2.0, ""H"": 8.0, ""Si"": 1.0, ""F"": 6.0}",178.17,#FFFFFF,cubic,"{""system"": ""cubic"", ""scale"": [1.0, 1.0, 1.0], ""optical"": {""transparent"": 1, ""refraction"": 1.5, ""birefringence"": 0.0}}"
Cryptophyllite,K2Ca[Si4O10]·5H2O,"{""K"": 2.0, ""Ca"": 1.0, ""Si"": 4.0, ""O"": 15.0, ""H"": 10.0}",480.72,#FFFFFF,monoclinic,"{""system"": ""monoclinic"", ""scale"": [0.7, 1.0, 1.3], ""optical"": {""transparent"": 1, ""refraction"": 1.5, ""birefringence"": 0.01}}"
Cualstibite,Cu2Al(OH)6[Sb(OH)6],"{""Cu"": 2.0, ""Al"": 1.0, ""O"": 12.0, ""H"": 12.0, ""Sb"": 1.0}",479.94,#FFFFFF,hexagonal,"{""system"": ""hexagonal"", ""scale"": [1.0, 1.0, 1.6], ""optical"": {""transparent"": 1, ""refraction"": 1.5, ""birefringence"": 0.01}}"
Cubanite,CuFe2S3,"{""Cu"": 1.0, ""Fe"": 2.0, ""S"": 3.0}",271.43,#DAA520,orthorhombic,"{""system"": ""orthorhombic"", ""scale"": [0.8, 1.0, 1.2], ""optical"": {""transparent"": 0, ""refraction"": 0.0, ""birefringence"": 0.0}}"
Cuboargyrite,AgSbS2,"{""Ag"": 1.0, ""Sb"": 1.0, ""S"": 2.0}",293.75,#A9A9A9,cubic,"{""system"": ""cubic"", ""scale"": [1.0, 1.0, 1.0], ""optical"": {""transparent"": 0, ""refraction"": 0.0, ""birefringence"": 0.0}}"
Cubo-ice,H2O,"{""H"": 2.0, ""O"": 1.0}",18.02,#FFFFFF,cubic,"{""system"": ""cubic"", ""scale"": [1.0, 1.0, 1.0], ""optical"": {""transparent"": 1, ""refraction"": 1.5, ""birefringence"": 0.0}}"
Cubothioplumbite,[Pb4(OH)4]Pb(S2O3)3,"{""Pb"": 5.0, ""O"": 13.0, ""H"": 4.0, ""S"": 6.0}",1440.39,#FFFFFF,cubic,"{""system"": ""cubic"", ""scale"": [1.0, 1.0, 1.0], ""optical"": {""transparent"": 1, ""refraction"": 1.5, ""birefringence"": 0.0}}"
Cumengeite,Pb21Cu20Cl42(OH)40·6H2O,"{""Pb"": 21.0, ""Cu"": 20.0, ""Cl"": 42.0, ""O"": 46.0, ""H"": 52.0}",7899.52,#FFFFFF,tetragonal,"{""system"": ""tetragonal"", ""scale"": [1.0, 1.0, 1.4], ""optical"": {""transparent"": 1, ""refraction"": 1.5, ""birefringence"": 0.01}}"
Cupalite,CuAl,"{""Cu"": 1.0, ""Al"": 1.0}",90.53,#00BFFF,orthorhombic,"{""system"": ""orthorhombic"", ""scale"": [0.8, 1.0, 1.2], ""optical"": {""transparent"": 0, ""refraction"": 0.0, ""birefringence"": 0.0}}"
Cuprite,Cu2O,"{""Cu"": 2.0, ""O"": 1.0}",143.1,#00BFFF,cubic,"{""system"": ""cubic"", ""scale"": [1.0, 1.0, 1.0], ""optical"": {""transparent"": 0, ""refraction"": 0.0, ""birefringence"": 0.0}}"
Cuproauride,Cu3Au,"{""Cu"": 3.0, ""Au"": 1.0}",387.62,#00BFFF,,"{""system"": """", ""scale"": [1.0, 1.0, 1.0], ""optical"": {""transparent"": 0, ""refraction"": 0.0, ""birefringence"": 0.0}}"
Cuprobismutite,Cu8AgBi13S24,"{""Cu"": 8.0, ""Ag"": 1.0, ""Bi"": 13.0, ""S"": 24.0}",4102.45,#A9A9A9,monoclinic,"{""system"": ""monoclinic"", ""scale"": [0.7, 1.0, 1.3], ""optical"": {""transparent"": 0, ""refraction"": 0.0, ""birefringence"": 0.0}}"
Cuprocopiapite,Cu2+Fe3+4(SO4)6(OH)2·20H2O,"{""Cu"": 1.0, ""Fe"": 4.0, ""S"": 6.0, ""O"": 46.0, ""H"": 42.0}",1257.65,#556B2F,,"{""system"": """", ""scale"": [1.0, 1.0, 1.0], ""optical"": {""transparent"": 0, ""refraction"": 0.0, ""birefringence"": 0.0}}"
Cuprodobrovolskyite,Na4Cu(SO4)3,"{""Na"": 4.0, ""Cu"": 1.0, ""S"": 3.0, ""O"": 12.0}",443.69,#FFFFFF,hexagonal,"{""system"": ""hexagonal"", ""scale"": [1.0, 1.0, 1.6], ""optical"": {""transparent"": 1, ""refraction"": 1.5, ""birefringence"": 0.01}}"
Cuproiridsite,Cu(Ir3+Ir4+)S4,"{""Cu"": 1.0, ""Ir"": 2.0, ""S"": 4.0}",576.23,#A9A9A9,cubic,"{""system"": ""cubic"", ""scale"": [1.0, 1.0, 1.0], ""optical"": {""transparent"": 0, ""refraction"": 0.0, ""birefringence"": 0.0}}"
Cuprokalininite,Cu(Cr3+Cr4+)S4,"{""Cu"": 1.0, ""Cr"": 2.0, ""S"": 4.0}",295.79,#A9A9A9,cubic,"{""system"": ""cubic"", ""scale"": [1.0, 1.0, 1.0], ""optical"": {""transparent"": 0, ""refraction"": 0.0, ""birefringence"": 0.0}}"
Cupromakopavonite,Cu8Pb4Ag3Bi19S38,"{""Cu"": 8.0, ""Pb"": 4.0, ""Ag"": 3.0, ""Bi"": 19.0, ""S"": 38.0}",6849.71,#708090,monoclinic,"{""system"": ""monoclinic"", ""scale"": [0.7, 1.0, 1.3], ""optical"": {""transparent"": 0, ""refraction"": 0.0, ""birefringence"": 0.0}}"
Cupromakovickyite,Cu4AgPb2Bi9S18,"{""Cu"": 4.0, ""Ag"": 1.0, ""Pb"": 2.0, ""Bi"": 9.0, ""S"": 18.0}",3234.37,#708090,monoclinic,"{""system"": ""monoclinic"", ""scale"": [0.7, 1.0, 1.3], ""optical"": {""transparent"": 0, ""refraction"": 0.0, ""birefringence"": 0.0}}"
Cupromolybdite,Cu2+3O(Mo6+O4)2,"{""Cu"": 3.0, ""O"": 9.0, ""Mo"": 2.0}",526.55,#00BFFF,orthorhombic,"{""system"": ""orthorhombic"", ""scale"": [0.8, 1.0, 1.2], ""optical"": {""transparent"": 0, ""refraction"": 0.0, ""birefringence"": 0.0}}"
Cuproneyite,Cu7Pb27Bi25S68,"{""Cu"": 7.0, ""Pb"": 27.0, ""Bi"": 25.0, ""S"": 68.0}",13443.83,#708090,monoclinic,"{""system"": ""monoclinic"", ""scale"": [0.7, 1.0, 1.3], ""optical"": {""transparent"": 0, ""refraction"": 0.0, ""birefringence"": 0.0}}"
Cupropearceite,[Cu6As2S7][Ag9CuS4],"{""Cu"": 7.0, ""As"": 2.0, ""S"": 11.0, ""Ag"": 9.0}",1918.18,#FFD700,hexagonal,"{""system"": ""hexagonal"", ""scale"": [1.0, 1.0, 1.6], ""optical"": {""transparent"": 0, ""refraction"": 0.0, ""birefringence"": 0.0}}"
Cupropolybasite,[Cu6Sb2S7][Ag9CuS4],"{""Cu"": 7.0, ""Sb"": 2.0, ""S"": 11.0, ""Ag"": 9.0}",2011.86,#A9A9A9,hexagonal,"{""system"": ""hexagonal"", ""scale"": [1.0, 1.0, 1.6], ""optical"": {""transparent"": 0, ""refraction"": 0.0, ""birefringence"": 0.0}}"
Cuprorivaite,CaCuSi4O10,"{""Ca"": 1.0, ""Cu"": 1.0, ""Si"": 4.0, ""O"": 10.0}",375.99,#FFFFFF,tetragonal,"{""system"": ""tetragonal"", ""scale"": [1.0, 1.0, 1.4], ""optical"": {""transparent"": 1, ""refraction"": 1.5, ""birefringence"": 0.01}}"
Cuprosenandorite,Ag16Cu8Pb24Sb72S144,"{""Ag"": 16.0, ""Cu"": 8.0, ""Pb"": 24.0, ""Sb"": 72.0, ""S"": 144.0}",20590.48,#708090,orthorhombic,"{""system"": ""orthorhombic"", ""scale"": [0.8, 1.0, 1.2], ""optical"": {""transparent"": 0, ""refraction"": 0.0, ""birefringence"": 0.0}}"
Cuprosklodowskite,Cu(UO2)2(SiO3OH)2·6H2O,"{""Cu"": 1.0, ""U"": 2.0, ""O"": 18.0, ""Si"": 2.0, ""H"": 14.0}",897.9,#FFFFFF,triclinic,"{""system"": ""triclinic"", ""scale"": [0.7, 1.0, 1.3], ""optical"": {""transparent"": 1, ""refraction"": 1.5, ""birefringence"": 0.01}}"
Cuprospinel,Cu2+Fe3+2O4,"{""Cu"": 1.0, ""Fe"": 2.0, ""O"": 4.0}",239.25,#00BFFF,cubic,"{""system"": ""cubic"", ""scale"": [1.0, 1.0, 1.0], ""optical"": {""transparent"": 0, ""refraction"": 0.0, ""birefringence"": 0.0}}"
Cuprotungstite,Cu2+3(WO4)2(OH)2,"{""Cu"": 3.0, ""W"": 2.0, ""O"": 10.0, ""H"": 2.0}",720.35,#FFFFFF,tetragonal,"{""system"": ""tetragonal"", ""scale"": [1.0, 1.0, 1.4], ""optical"": {""transparent"": 1, ""refraction"": 1.5, ""birefringence"": 0.01}}"
Curienite,Pb(UO2)2(VO4)2·5H2O,"{""Pb"": 1.0, ""U"": 2.0, ""O"": 17.0, ""V"": 2.0, ""H"": 10.0}",1067.22,#FFFFFF,orthorhombic,"{""system"": ""orthorhombic"", ""scale"": [0.8, 1.0, 1.2], ""optical"": {""transparent"": 1, ""refraction"": 1.5, ""birefringence"": 0.01}}"
Currierite,Na4Ca3MgAl4(AsO3OH)12·9H2O,"{""Na"": 4.0, ""Ca"": 3.0, ""Mg"": 1.0, ""Al"": 4.0, ""As"": 12.0, ""O"": 57.0, ""H"": 30.0}",2185.71,#FFFFFF,hexagonal,"{""system"": ""hexagonal"", ""scale"": [1.0, 1.0, 1.6], ""optical"": {""transparent"": 1, ""refraction"": 1.5, ""birefringence"": 0.01}}"
Cuspidine,Ca8(Si2O7)2F4,"{""Ca"": 8.0, ""Si"": 4.0, ""O"": 14.0, ""F"": 4.0}",733.0,#FFFFFF,monoclinic,"{""system"": ""monoclinic"", ""scale"": [0.7, 1.0, 1.3], ""optical"": {""transparent"": 1, ""refraction"": 1.5, ""birefringence"": 0.01}}"
Cuzticite,Fe3+2Te6+O6·3H2O,"{""Fe"": 2.0, ""Te"": 1.0, ""O"": 9.0, ""H"": 6.0}",389.35,#556B2F,hexagonal,"{""system"": ""hexagonal"", ""scale"": [1.0, 1.0, 1.6], ""optical"": {""transparent"": 0, ""refraction"": 0.0, ""birefringence"": 0.0}}"
Cyanochroite,K2Cu(SO4)2·6H2O,"{""K"": 2.0, ""Cu"": 1.0, ""S"": 2.0, ""O"": 14.0, ""H"": 12.0}",441.97,#FFFFFF,monoclinic,"{""system"": ""monoclinic"", ""scale"": [0.7, 1.0, 1.3], ""optical"": {""transparent"": 1, ""refraction"": 1.5, ""birefringence"": 0.01}}"
Cyanotrichite,Cu4Al2(SO4)(OH)12(H2O)2,"{""Cu"": 4.0, ""Al"": 2.0, ""S"": 1.0, ""O"": 18.0, ""H"": 16.0}",644.35,#FFFFFF,,"{""system"": """", ""scale"": [1.0, 1.0, 1.0], ""optical"": {""transparent"": 1, ""refraction"": 1.5, ""birefringence"": 0.01}}"
Cyrilovite,NaFe3+3(PO4)2(OH)4·2H2O,"{""Na"": 1.0, ""Fe"": 3.0, ""P"": 2.0, ""O"": 14.0, ""H"": 8.0}",484.54,#556B2F,tetragonal,"{""system"": ""tetragonal"", ""scale"": [1.0, 1.0, 1.4], ""optical"": {""transparent"": 0, ""refraction"": 0.0, ""birefringence"": 0.0}}"
Czochralskiite,Na4Ca3Mg(PO4)4,"{""Na"": 4.0, ""Ca"": 3.0, ""Mg"": 1.0, ""P"": 4.0, ""O"": 16.0}",616.39,#FFFFFF,orthorhombic,"{""system"": ""orthorhombic"", ""scale"": [0.8, 1.0, 1.2], ""optical"": {""transparent"": 1, ""refraction"": 1.5, ""birefringence"": 0.01}}"
Dansite,Na21Mg(SO4)10Cl3,"{""Na"": 21.0, ""Mg"": 1.0, ""S"": 10.0, ""O"": 40.0, ""Cl"": 3.0}",1574.05,#FFFFFF,cubic,"{""system"": ""cubic"", ""scale"": [1.0, 1.0, 1.0], ""optical"": {""transparent"": 1, ""refraction"": 1.5, ""birefringence"": 0.0}}"
Dansite-(Fe),Na21Fe(SO4)10Cl3,"{""Na"": 21.0, ""Fe"": 1.0, ""S"": 10.0, ""O"": 40.0, ""Cl"": 3.0}",1605.59,#556B2F,cubic,"{""system"": ""cubic"", ""scale"": [1.0, 1.0, 1.0], ""optical"": {""transparent"": 0, ""refraction"": 0.0, ""birefringence"": 0.0}}"
Dachiardite-Ca,Ca2(Si20Al4)O48·13H2O,"{""Ca"": 2.0, ""Si"": 20.0, ""Al"": 4.0, ""O"": 61.0, ""H"": 26.0}",1752.09,#FFFFFF,monoclinic,"{""system"": ""monoclinic"", ""scale"": [0.7, 1.0, 1.3], ""optical"": {""transparent"": 1, ""refraction"": 1.5, ""birefringence"": 0.01}}"
Dachiardite-K,K4(Si20Al4)O48·13H2O,"{""K"": 4.0, ""Si"": 20.0, ""Al"": 4.0, ""O"": 61.0, ""H"": 26.0}",1828.33,#FFFFFF,monoclinic,"{""system"": ""monoclinic"", ""scale"": [0.7, 1.0, 1.3], ""optical"": {""transparent"": 1, ""refraction"": 1.5, ""birefringence"": 0.01}}"
Dachiardite-Na,Na4(Si20Al4)O48·13H2O,"{""Na"": 4.0, ""Si"": 20.0, ""Al"": 4.0, ""O"": 61.0, ""H"": 26.0}",1763.89,#FFFFFF,monoclinic,"{""system"": ""monoclinic"", ""scale"": [0.7, 1.0, 1.3], ""optical"": {""transparent"": 1, ""refraction"": 1.5, ""birefringence"": 0.01}}"
Dacostaite,K(Mg2Al)[Mg(H2O)6]2(AsO4)2F6·2H2O,"{""K"": 1.0, ""Mg"": 4.0, ""Al"": 1.0, ""H"": 28.0, ""O"": 22.0, ""As"": 2.0, ""F"": 6.0}",807.38,#FFFFFF,monoclinic,"{""system"": ""monoclinic"", ""scale"": [0.7, 1.0, 1.3], ""optical"": {""transparent"": 1, ""refraction"": 1.5, ""birefringence"": 0.01}}"
Dadsonite,Pb23Sb25S60Cl,"{""Pb"": 23.0, ""Sb"": 25.0, ""S"": 60.0, ""Cl"": 1.0}",9768.65,#708090,triclinic,"{""system"": ""triclinic"", ""scale"": [0.7, 1.0, 1.3], ""optical"": {""transparent"": 0, ""refraction"": 0.0, ""birefringence"": 0.0}}"
Daliranite,PbHgAs2S5,"{""Pb"": 1.0, ""Hg"": 1.0, ""As"": 2.0, ""S"": 5.0}",717.93,#708090,monoclinic,"{""system"": ""monoclinic"", ""scale"": [0.7, 1.0, 1.3], ""optical"": {""transparent"": 0, ""refraction"": 0.0, ""birefringence"": 0.0}}"
Dalyite,K2ZrSi6O15,"{""K"": 2.0, ""Zr"": 1.0, ""Si"": 6.0, ""O"": 15.0}",577.96,#FFFFFF,triclinic,"{""system"": ""triclinic"", ""scale"": [0.7, 1.0, 1.3], ""optical"": {""transparent"": 1, ""refraction"": 1.5, ""birefringence"": 0.01}}"
Damaraite,Pb3O2(OH)Cl,"{""Pb"": 3.0, ""O"": 3.0, ""H"": 1.0, ""Cl"": 1.0}",706.06,#FFFFFF,orthorhombic,"{""system"": ""orthorhombic"", ""scale"": [0.8, 1.0, 1.2], ""optical"": {""transparent"": 1, ""refraction"": 1.5, ""birefringence"": 0.01}}"
Danalite,Be3Fe2+4(SiO4)3S,"{""Be"": 3.0, ""Fe"": 4.0, ""Si"": 3.0, ""O"": 12.0, ""S"": 1.0}",558.76,#556B2F,cubic,"{""system"": ""cubic"", ""scale"": [1.0, 1.0, 1.0], ""optical"": {""transparent"": 0, ""refraction"": 0.0, ""birefringence"": 0.0}}"
Danburite,CaB2Si2O8,"{""Ca"": 1.0, ""B"": 2.0, ""Si"": 2.0, ""O"": 8.0}",245.88,#FFFFFF,orthorhombic,"{""system"": ""orthorhombic"", ""scale"": [0.8, 1.0, 1.2], ""optical"": {""transparent"": 1, ""refraction"": 1.5, ""birefringence"": 0.01}}"
Dantopaite,Ag5Bi13S22,"{""Ag"": 5.0, ""Bi"": 13.0, ""S"": 22.0}",3961.41,#A9A9A9,monoclinic,"{""system"": ""monoclinic"", ""scale"": [0.7, 1.0, 1.3], ""optical"": {""transparent"": 0, ""refraction"": 0.0, ""birefringence"": 0.0}}"
Daomanite,CuPtAsS2,"{""Cu"": 1.0, ""Pt"": 1.0, ""As"": 1.0, ""S"": 2.0}",397.67,#FFD700,monoclinic,"{""system"": ""monoclinic"", ""scale"": [0.7, 1.0, 1.3], ""optical"": {""transparent"": 0, ""refraction"": 0.0, ""birefringence"": 0.0}}"
Daqingshanite-(Ce),Sr3Ce(PO4)(CO3)3,"{""Sr"": 3.0, ""Ce"": 1.0, ""P"": 1.0, ""O"": 13.0, ""C"": 3.0}",677.98,#FFFFFF,hexagonal,"{""system"": ""hexagonal"", ""scale"": [1.0, 1.0, 1.6], ""optical"": {""transparent"": 1, ""refraction"": 1.5, ""birefringence"": 0.01}}"
Darapskite,Na3(SO4)(NO3)·H2O,"{""Na"": 3.0, ""S"": 1.0, ""O"": 8.0, ""N"": 1.0, ""H"": 2.0}",245.06,#FFFFFF,monoclinic,"{""system"": ""monoclinic"", ""scale"": [0.7, 1.0, 1.3], ""optical"": {""transparent"": 1, ""refraction"": 1.5, ""birefringence"": 0.01}}"
Dargaite,BaCa12(SiO4)4(SO4)2O3,"{""Ba"": 1.0, ""Ca"": 12.0, ""Si"": 4.0, ""O"": 27.0, ""S"": 2.0}",1226.77,#FFFFFF,hexagonal,"{""system"": ""hexagonal"", ""scale"": [1.0, 1.0, 1.6], ""optical"": {""transparent"": 1, ""refraction"": 1.5, ""birefringence"": 0.01}}"
Darrellhenryite,Na(Al2Li)Al6(Si6O18)(BO3)3(OH)3O,"{""Na"": 1.0, ""Al"": 8.0, ""Li"": 1.0, ""Si"": 6.0, ""O"": 31.0, ""B"": 3.0, ""H"": 3.0}",945.76,#FFFFFF,hexagonal,"{""system"": ""hexagonal"", ""scale"": [1.0, 1.0, 1.6], ""optical"": {""transparent"": 1, ""refraction"": 1.5, ""birefringence"": 0.01}}"
Dashkovaite,Mg(HCOO)2·2H2O,"{""Mg"": 1.0, ""H"": 6.0, ""C"": 2.0, ""O"": 6.0}",150.38,#FFFFFF,monoclinic,"{""system"": ""monoclinic"", ""scale"": [0.7, 1.0, 1.3], ""optical"": {""transparent"": 1, ""refraction"": 1.5, ""birefringence"": 0.01}}"
Datolite,CaB(SiO4)(OH),"{""Ca"": 1.0, ""B"": 1.0, ""Si"": 1.0, ""O"": 5.0, ""H"": 1.0}",159.99,#FFFFFF,monoclinic,"{""system"": ""monoclinic"", ""scale"": [0.7, 1.0, 1.3], ""optical"": {""transparent"": 1, ""refraction"": 1.5, ""birefringence"": 0.01}}"
Daubreeite,BiO(OH),"{""Bi"": 1.0, ""O"": 2.0, ""H"": 1.0}",241.99,#D2B48C,tetragonal,"{""system"": ""tetragonal"", ""scale"": [1.0, 1.0, 1.4], ""optical"": {""transparent"": 0, ""refraction"": 0.0, ""birefringence"": 0.0}}"
Daubreelite,FeCr2S4,"{""Fe"": 1.0, ""Cr"": 2.0, ""S"": 4.0}",288.09,#DAA520,cubic,"{""system"": ""cubic"", ""scale"": [1.0, 1.0, 1.0], ""optical"": {""transparent"": 0, ""refraction"": 0.0, ""birefringence"": 0.0}}"
Davanite,K2TiSi6O15,"{""K"": 2.0, ""Ti"": 1.0, ""Si"": 6.0, ""O"": 15.0}",534.61,#FFFFFF,triclinic,"{""system"": ""triclinic"", ""scale"": [0.7, 1.0, 1.3], ""optical"": {""transparent"": 1, ""refraction"": 1.5, ""birefringence"": 0.01}}"
Davemaoite,CaSiO3,"{""Ca"": 1.0, ""Si"": 1.0, ""O"": 3.0}",116.17,#FFFFFF,cubic,"{""system"": ""cubic"", ""scale"": [1.0, 1.0, 1.0], ""optical"": {""transparent"": 1, ""refraction"": 1.5, ""birefringence"": 0.0}}"
Davinciite,Na12K3Ca6Fe2+3Zr3(Si26O73OH)Cl2,"{""Na"": 12.0, ""K"": 3.0, ""Ca"": 6.0, ""Fe"": 3.0, ""Zr"": 3.0, ""Si"": 26.0, ""O"": 74.0, ""H"": 1.0, ""Cl"": 2.0}",3061.12,#556B2F,hexagonal,"{""system"": ""hexagonal"", ""scale"": [1.0, 1.0, 1.6], ""optical"": {""transparent"": 0, ""refraction"": 0.0, ""birefringence"": 0.0}}"
Davisite,CaScAlSiO6,"{""Ca"": 1.0, ""Sc"": 1.0, ""Al"": 1.0, ""Si"": 1.0, ""O"": 6.0}",236.11,#FFFFFF,monoclinic,"{""system"": ""monoclinic"", ""scale"": [0.7, 1.0, 1.3], ""optical"": {""transparent"": 1, ""refraction"": 1.5, ""birefringence"": 0.01}}"
Dawsonite,NaAl(CO3)(OH)2,"{""Na"": 1.0, ""Al"": 1.0, ""C"": 1.0, ""O"": 5.0, ""H"": 2.0}",144.0,#FFFFFF,orthorhombic,"{""system"": ""orthorhombic"", ""scale"": [0.8, 1.0, 1.2], ""optical"": {""transparent"": 1, ""refraction"": 1.5, ""birefringence"": 0.01}}"
Deanesmithite,Hg1+2Hg2+3S2O(CrO4),"{""Hg"": 5.0, ""S"": 2.0, ""O"": 5.0, ""Cr"": 1.0}",1199.07,#FFFFFF,triclinic,"{""system"": ""triclinic"", ""scale"": [0.7, 1.0, 1.3], ""optical"": {""transparent"": 1, ""refraction"": 1.5, ""birefringence"": 0.01}}"
Decagonite,Al71Ni24Fe5,"{""Al"": 71.0, ""Ni"": 24.0, ""Fe"": 5.0}",3603.39,#7FFF00,,"{""system"": """", ""scale"": [1.0, 1.0, 1.0], ""optical"": {""transparent"": 0, ""refraction"": 0.0, ""birefringence"": 0.0}}"
Decrespignyite-(Y),Y4Cu(CO3)4Cl(OH)5·2H2O,"{""Y"": 4.0, ""Cu"": 1.0, ""C"": 4.0, ""O"": 19.0, ""Cl"": 1.0, ""H"": 9.0}",815.75,#FFFFFF,hexagonal,"{""system"": ""hexagonal"", ""scale"": [1.0, 1.0, 1.6], ""optical"": {""transparent"": 1, ""refraction"": 1.5, ""birefringence"": 0.01}}"
Deerite,Fe2+6Fe3+3(Si6O17)O3(OH)5,"{""Fe"": 9.0, ""Si"": 6.0, ""O"": 25.0, ""H"": 5.0}",1076.23,#556B2F,monoclinic,"{""system"": ""monoclinic"", ""scale"": [0.7, 1.0, 1.3], ""optical"": {""transparent"": 0, ""refraction"": 0.0, ""birefringence"": 0.0}}"
Dekatriasartorite,TlPb58As97S204,"{""Tl"": 1.0, ""Pb"": 58.0, ""As"": 97.0, ""S"": 204.0}",26029.46,#708090,monoclinic,"{""system"": ""monoclinic"", ""scale"": [0.7, 1.0, 1.3], ""optical"": {""transparent"": 0, ""refraction"": 0.0, ""birefringence"": 0.0}}"
Delafossite,Cu1+Fe3+O2,"{""Cu"": 1.0, ""Fe"": 1.0, ""O"": 2.0}",151.4,#00BFFF,hexagonal,"{""system"": ""hexagonal"", ""scale"": [1.0, 1.0, 1.6], ""optical"": {""transparent"": 0, ""refraction"": 0.0, ""birefringence"": 0.0}}"