name,formula,elements,density,color,crystal,pm_ids,gacha_weight
Carnallite,KMgCl3·6H2O,"{""K"": 1.0, ""Mg"": 1.0, ""Cl"": 3.0, ""H"": 12.0, ""O"": 6.0}",277.843,#FFFFFF,orthorhombic,"{25,45}",7.1204e-08
Carnotite,K2(UO2)2(VO4)2·3H2O,"{""K"": 2.0, ""U"": 2.0, ""O"": 15.0, ""V"": 2.0, ""H"": 6.0}",902.173,#FFFFFF,monoclinic,"{47,53}",2.3562e-07
Carobbiite,KF,"{""K"": 1.0, ""F"": 1.0}",58.096,#FFFFFF,cubic,"{45,50,54}",5.147e-09
Carpathite,C24H12,"{""C"": 24.0, ""H"": 12.0}",300.36,#FFFFFF,monoclinic,"{14,53}",2.49405e-07
Carpholite,Mn2+Al2Si2O6(OH)4,"{""Mn"": 1.0, ""Al"": 2.0, ""Si"": 2.0, ""O"": 10.0, ""H"": 4.0}",329.094,#FFFFFF,orthorhombic,"{23,32,39}",9.6296e-08
Carraraite,Ca3Ge(SO4)(CO3)(OH)6·12H2O,"{""Ca"": 3.0, ""Ge"": 1.0, ""S"": 1.0, ""O"": 25.0, ""C"": 1.0, ""H"": 30.0}",667.15,#FFFFFF,hexagonal,"{23,46}",3.9022e-08
Carrollite,CuCo2S4,"{""Cu"": 1.0, ""Co"": 2.0, ""S"": 4.0}",309.652,#A9A9A9,cubic,"{33,37}",1.732e-09
Caryinite,NaCaCaMn2(AsO4)3,"{""Na"": 1.0, ""Ca"": 2.0, ""Mn"": 2.0, ""As"": 3.0, ""O"": 12.0}",629.776,#FFFFFF,monoclinic,{32},1.214e-09
Caryopilite,Mn2+3Si2O5(OH)4,"{""Mn"": 3.0, ""Si"": 2.0, ""O"": 9.0, ""H"": 4.0}",369.007,#FFFFFF,monoclinic,"{22,32}",3.238e-09
Cascandite,CaScSi3O8(OH),"{""Ca"": 1.0, ""Sc"": 1.0, ""Si"": 3.0, ""O"": 9.0, ""H"": 1.0}",314.288,#FFFFFF,triclinic,{19},3.4965035e-05
Cassagnaite,Ca4Fe3+4V3+2(OH)6O2(Si3O10)(SiO4)2,"{""Ca"": 4.0, ""Fe"": 4.0, ""V"": 2.0, ""O"": 26.0, ""H"": 6.0, ""Si"": 5.0}",1048.023,#556B2F,orthorhombic,{32},2.4272e-08
Cassedanneite,Pb5(VO4)2(CrO4)2·H2O,"{""Pb"": 5.0, ""V"": 2.0, ""O"": 17.0, ""Cr"": 2.0, ""H"": 2.0}",1515.875,#FFFFFF,monoclinic,{47},1.5015e-07
Cassidyite,Ca2Ni(PO4)2·2H2O,"{""Ca"": 2.0, ""Ni"": 1.0, ""P"": 2.0, ""O"": 10.0, ""H"": 4.0}",364.819,#FFFFFF,triclinic,{47},1.5015e-08
Cassiterite,SnO2,"{""Sn"": 1.0, ""O"": 2.0}",150.708,#FFFFFF,tetragonal,"{19,26,31,34,38,40}",4.4547837e-05
Caswellsilverite,NaCrS2,"{""Na"": 1.0, ""Cr"": 1.0, ""S"": 2.0}",139.106,#A9A9A9,hexagonal,"{4,5}",6.383e-09
Catalanoite,Na2(HPO4)·8H2O,"{""Na"": 2.0, ""H"": 17.0, ""P"": 1.0, ""O"": 12.0}",286.078,#FFFFFF,orthorhombic,{25},4.762e-09
Catamarcaite,Cu6GeWS8,"{""Cu"": 6.0, ""Ge"": 1.0, ""W"": 1.0, ""S"": 8.0}",894.226,#A9A9A9,hexagonal,{33},2.51e-10
Catapleiite,Na2Zr(Si3O9)·2H2O,"{""Na"": 2.0, ""Zr"": 1.0, ""Si"": 3.0, ""O"": 11.0, ""H"": 4.0}",401.48,#FFFFFF,monoclinic,{35},1.3774e-08
Cattierite,CoS2,"{""Co"": 1.0, ""S"": 2.0}",123.053,#A9A9A9,cubic,{12},1.55e-09
Cattiite,Mg3(PO4)2·22H2O,"{""Mg"": 3.0, ""P"": 2.0, ""O"": 30.0, ""H"": 44.0}",659.185,#FFFFFF,triclinic,"{36,47,55}",2.2239e-08
Cavansite,Ca(V4+O)(Si4O10)·4H2O,"{""Ca"": 1.0, ""V"": 1.0, ""O"": 15.0, ""Si"": 4.0, ""H"": 8.0}",451.409,#FFFFFF,orthorhombic,"{10,16,23}",1.972734e-06
Cavoite,CaV3O7,"{""Ca"": 1.0, ""V"": 3.0, ""O"": 7.0}",304.897,#FFFFFF,orthorhombic,"{40,47}",9.554539e-06
Cayalsite-(Y),CaY6Al2Si4O18F6,"{""Ca"": 1.0, ""Y"": 6.0, ""Al"": 2.0, ""Si"": 4.0, ""O"": 18.0, ""F"": 6.0}",1141.788,#FFFFFF,monoclinic,{34},8.87e-10
Cebaite-(Ce),Ba3Ce2(CO3)5F2,"{""Ba"": 3.0, ""Ce"": 2.0, ""C"": 5.0, ""O"": 15.0, ""F"": 2.0}",1030.266,#FFFFFF,monoclinic,"{35,36}",2.407e-09
Cebollite,Ca5Al2(SiO4)3(OH)4,"{""Ca"": 5.0, ""Al"": 2.0, ""Si"": 3.0, ""O"": 16.0, ""H"": 4.0}",598.625,#FFFFFF,unknown,"{7,10,36,47}",4.67055e-07
Cechite,PbFe2+(VO4)(OH),"{""Pb"": 1.0, ""Fe"": 1.0, ""V"": 1.0, ""O"": 5.0, ""H"": 1.0}",394.99,#556B2F,orthorhombic,"{32,47}",1.74422e-07
Cejkaite,Na4(UO2)(CO3)3,"{""Na"": 4.0, ""U"": 1.0, ""O"": 11.0, ""C"": 3.0}",542.012,#FFFFFF,monoclinic,{47},1.5015e-07
Celadonite,KMgFe3+Si4O10(OH)2,"{""K"": 1.0, ""Mg"": 1.0, ""Fe"": 1.0, ""Si"": 4.0, ""O"": 12.0, ""H"": 2.0}",425.592,#556B2F,monoclinic,"{16,22,32,47}",4.36007e-07
Celestine,Sr(SO4),"{""Sr"": 1.0, ""S"": 1.0, ""O"": 4.0}",183.676,#FFFF00,orthorhombic,"{14,21,23,24,25,49}",4.7239e-08
Celsian,Ba(Al2Si2O8),"{""Ba"": 1.0, ""Al"": 2.0, ""Si"": 2.0, ""O"": 8.0}",375.456,#FFFFFF,monoclinic,"{5,32,50}",1.67285e-07
Cerchiaraite-(Al),Ba4Al4(Si4O12)O2(OH)4Cl2[Si2O3(OH)4],"{""Ba"": 4.0, ""Al"": 4.0, ""Si"": 6.0, ""O"": 25.0, ""H"": 8.0, ""Cl"": 2.0}",1304.697,#FFFFFF,tetragonal,{23},1.758794e-06
Cerchiaraite-(Fe),Ba4Fe3+4(Si4O12)O2(OH)4Cl2[Si2O3(OH)4],"{""Ba"": 4.0, ""Fe"": 4.0, ""Si"": 6.0, ""O"": 25.0, ""H"": 8.0, ""Cl"": 2.0}",1420.149,#556B2F,tetragonal,{23},1.758794e-06
Cerchiaraite-(Mn),Ba4Mn3+4(Si4O12)O2(OH)4Cl2[Si2O3(OH)4],"{""Ba"": 4.0, ""Mn"": 4.0, ""Si"": 6.0, ""O"": 25.0, ""H"": 8.0, ""Cl"": 2.0}",1416.521,#FFFFFF,tetragonal,{23},8.794e-08
Cerianite-(Ce),CeO2,"{""Ce"": 1.0, ""O"": 2.0}",172.118,#FFFFFF,cubic,{35},1.3774e-08
Cerium,Ce,"{""Ce"": 1.0}",140.12,#FFFFFF,hexagonal,{26},4e-08
Cernyite,Cu2CdSnS4,"{""Cu"": 2.0, ""Cd"": 1.0, ""Sn"": 1.0, ""S"": 4.0}",486.452,#A9A9A9,tetragonal,{12},1.55e-09
Cerromojonite,CuPbBiSe3,"{""Cu"": 1.0, ""Pb"": 1.0, ""Bi"": 1.0, ""Se"": 3.0}",716.639,#FFFFFF,orthorhombic,{33},1.2547e-08
Ceruleite,CuAl4(AsO4)2(OH)8(H2O)4,"{""Cu"": 1.0, ""Al"": 4.0, ""As"": 2.0, ""O"": 20.0, ""H"": 16.0}",657.426,#FFFFFF,triclinic,{47},1.5015e-07
Cerussite,Pb(CO3),"{""Pb"": 1.0, ""C"": 1.0, ""O"": 3.0}",267.208,#FFFFFF,orthorhombic,"{45,47,57}",3.77817e-07
Cervantite,Sb3+Sb5+O4,"{""Sb"": 2.0, ""O"": 4.0}",307.516,#A9A9A9,orthorhombic,{47},1.5015e-07
Cervelleite,Ag4TeS,"{""Ag"": 4.0, ""Te"": 1.0, ""S"": 1.0}",591.14,#A9A9A9,cubic,{33},2.51e-10
Cesanite,Ca2Na3(SO4)3OH,"{""Ca"": 2.0, ""Na"": 3.0, ""S"": 3.0, ""O"": 13.0, ""H"": 1.0}",454.301,#FFFFFF,hexagonal,{46},3.846e-09
Cesarferreiraite,Fe2+Fe3+2(AsO4)2(OH)2·8H2O,"{""Fe"": 3.0, ""As"": 2.0, ""O"": 18.0, ""H"": 18.0}",623.505,#556B2F,triclinic,"{34,46}",2.10038e-07
Cesarolite,PbMn4+3O6(OH)2,"{""Pb"": 1.0, ""Mn"": 3.0, ""O"": 8.0, ""H"": 2.0}",502.022,#FFFFFF,unknown,{47},7.508e-09
Cesbronite,Cu3Te6+O4(OH)4,"{""Cu"": 3.0, ""Te"": 1.0, ""O"": 8.0, ""H"": 4.0}",450.262,#FFFFFF,orthorhombic,{47},1.5015e-07
Cesiodymite,CsKCu5O(SO4)5,"{""Cs"": 1.0, ""K"": 1.0, ""Cu"": 5.0, ""O"": 21.0, ""S"": 5.0}",986.017,#FFFFFF,triclinic,{45},4.72e-10
Cesplumtantite,Cs2Pb3Ta8O24,"{""Cs"": 2.0, ""Pb"": 3.0, ""Ta"": 8.0, ""O"": 24.0}",2718.996,#FFFFFF,tetragonal,{34},1.773e-08
Cetineite,NaK5Sb14S6O18(H2O)6,"{""Na"": 1.0, ""K"": 5.0, ""Sb"": 14.0, ""S"": 6.0, ""O"": 24.0, ""H"": 12.0}",2511.552,#FFFFFF,hexagonal,"{47,56}",4.402e-09
Chabazite-Ca,Ca2[Al4Si8O24]·13H2O,"{""Ca"": 2.0, ""Al"": 4.0, ""Si"": 8.0, ""O"": 37.0, ""H"": 26.0}",1030.935,#FFFFFF,triclinic,"{9,10,17,22,24,40}",1.2932772e-05
Chabazite-Na,(Na3K)[Al4Si8O24]·11H2O,"{""Na"": 3.0, ""K"": 1.0, ""Al"": 4.0, ""Si"": 8.0, ""O"": 35.0, ""H"": 22.0}",1022.817,#FFFFFF,triclinic,"{9,10,17,22,24,40}",1.3927601e-05
Chadwickite,(UO2)(HAsO3),"{""U"": 1.0, ""O"": 5.0, ""H"": 1.0, ""As"": 1.0}",393.955,#FFFFFF,tetragonal,{47},1.5015e-07
Chaidamuite,ZnFe3+(SO4)2(OH)·4H2O,"{""Zn"": 1.0, ""Fe"": 1.0, ""S"": 2.0, ""O"": 13.0, ""H"": 9.0}",402.404,#556B2F,triclinic,{47},3.003e-09
Chalcanthite,Cu(SO4)·5H2O,"{""Cu"": 1.0, ""S"": 1.0, ""O"": 9.0, ""H"": 10.0}",249.677,#FFFFFF,triclinic,"{45,47,50,54,55}",5.82e-09
Chalcoalumite,CuAl4(SO4)(OH)12·3H2O,"{""Cu"": 1.0, ""Al"": 4.0, ""S"": 1.0, ""O"": 19.0, ""H"": 18.0}",525.659,#FFFFFF,monoclinic,{47},3.003e-09
Chalcocite,Cu2S,"{""Cu"": 2.0, ""S"": 1.0}",159.152,#A9A9A9,cubic,"{12,15,33,47,50,51,53,54}",1.5914e-08
Chalcocyanite,Cu(SO4),"{""Cu"": 1.0, ""S"": 1.0, ""O"": 4.0}",159.602,#00BFFF,orthorhombic,"{45,50,54}",2.059e-09
Chalcomenite,Cu(Se4+O3)·2H2O,"{""Cu"": 1.0, ""Se"": 1.0, ""O"": 5.0, ""H"": 4.0}",226.544,#FFFFFF,orthorhombic,{47},1.5015e-07
Chalconatronite,Na2Cu(CO3)2·3H2O,"{""Na"": 2.0, ""Cu"": 1.0, ""C"": 2.0, ""O"": 9.0, ""H"": 6.0}",283.587,#FFFFFF,monoclinic,"{47,57}",3.54232e-07
Chalcophanite,ZnMn4+3O7·3H2O,"{""Zn"": 1.0, ""Mn"": 3.0, ""O"": 10.0, ""H"": 6.0}",396.232,#FFFFFF,hexagonal,{47},7.508e-09
Chalcophyllite,Cu18Al2(AsO4)4(SO4)3(OH)24·36H2O,"{""Cu"": 18.0, ""Al"": 2.0, ""As"": 4.0, ""O"": 88.0, ""S"": 3.0, ""H"": 96.0}",3098.34,#FFFFFF,hexagonal,{47},3.003e-09
Chalcopyrite,CuFeS2,"{""Cu"": 1.0, ""Fe"": 1.0, ""S"": 2.0}",183.511,#DAA520,cubic,"{8,11,12,15,19,32,33,34,37,50,51,54}",8.47411e-07
Chalcosiderite,CuFe3+6(PO4)4(OH)8·4H2O,"{""Cu"": 1.0, ""Fe"": 6.0, ""P"": 4.0, ""O"": 28.0, ""H"": 16.0}",986.612,#556B2F,triclinic,{47},1.5015e-08
Chalcostibite,CuSbS2,"{""Cu"": 1.0, ""Sb"": 1.0, ""S"": 2.0}",249.426,#A9A9A9,orthorhombic,{33},2.51e-10
Challacolloite,KPb2Cl5,"{""K"": 1.0, ""Pb"": 2.0, ""Cl"": 5.0}",630.748,#FFFFFF,monoclinic,"{23,45}",1.782379e-06
Chambersite,Mn3B7O13Cl,"{""Mn"": 3.0, ""B"": 7.0, ""O"": 13.0, ""Cl"": 1.0}",483.921,#FFFFFF,orthorhombic,{25},2.381e-09
Changbaiite,PbNb2O6,"{""Pb"": 1.0, ""Nb"": 2.0, ""O"": 6.0}",489.006,#FFFFFF,hexagonal,"{19,23}",3.6723829e-05
Changchengite,IrBiS,"{""Ir"": 1.0, ""Bi"": 1.0, ""S"": 1.0}",433.26,#A9A9A9,cubic,{33},2.51e-10
Changoite,Na2Zn(SO4)2·4H2O,"{""Na"": 2.0, ""Zn"": 1.0, ""S"": 2.0, ""O"": 12.0, ""H"": 8.0}",375.532,#FFFFFF,monoclinic,{47},3.003e-09
Chantalite,CaAl2(SiO4)(OH)4,"{""Ca"": 1.0, ""Al"": 2.0, ""Si"": 1.0, ""O"": 8.0, ""H"": 4.0}",254.151,#FFFFFF,tetragonal,"{23,36}",2.331106e-06
Chaoite,C,"{""C"": 1.0}",12.011,#FFFFFF,hexagonal,"{6,30}",6.7378e-07
Chapmanite,Fe3+2Sb3+(Si2O5)O3(OH),"{""Fe"": 2.0, ""Sb"": 1.0, ""Si"": 2.0, ""O"": 9.0, ""H"": 1.0}",434.619,#556B2F,monoclinic,"{23,33}",1.771341e-06
Charleshatchettite,CaNb4O10(OH)2·8H2O,"{""Ca"": 1.0, ""Nb"": 4.0, ""O"": 20.0, ""H"": 18.0}",749.826,#FFFFFF,monoclinic,"{35,47}",1.63924e-07
Charmarite,Mn4Al2(OH)12(CO3)·3H2O,"{""Mn"": 4.0, ""Al"": 2.0, ""O"": 18.0, ""H"": 18.0, ""C"": 1.0}",591.853,#FFFFFF,hexagonal,{35},6.89e-10
Chatkalite,Cu6FeSn2S8,"{""Cu"": 6.0, ""Fe"": 1.0, ""Sn"": 2.0, ""S"": 8.0}",931.021,#DAA520,tetragonal,{33},2.51e-10
Chayesite,KMg4Fe3+[Si12O30],"{""K"": 1.0, ""Mg"": 4.0, ""Fe"": 1.0, ""Si"": 12.0, ""O"": 30.0}",1009.153,#556B2F,hexagonal,{35},1.7906e-08
Chegemite,Ca7(SiO4)3(OH)2,"{""Ca"": 7.0, ""Si"": 3.0, ""O"": 14.0, ""H"": 2.0}",590.803,#FFFFFF,orthorhombic,"{9,51}",2.03925e-07
Chekhovichite,Bi3+2Te4+4O11,"{""Bi"": 2.0, ""Te"": 4.0, ""O"": 11.0}",1104.349,#D2B48C,monoclinic,{47},1.5015e-07
Chelkarite,CaMgB2O4Cl2·7H2O (?),"{""Ca"": 1.0, ""Mg"": 1.0, ""B"": 2.0, ""O"": 11.0, ""Cl"": 2.0, ""H"": 14.0}",347.004,#FFFFFF,orthorhombic,{25},4.7619e-08
Chenevixite,CuFe3+(AsO4)(OH)2,"{""Cu"": 1.0, ""Fe"": 1.0, ""As"": 1.0, ""O"": 6.0, ""H"": 2.0}",292.323,#556B2F,monoclinic,{47},1.5015e-07
Chengdeite,Ir3Fe,"{""Ir"": 3.0, ""Fe"": 1.0}",632.505,#8B4513,cubic,"{26,37}",1.14074e-07
Chenguodaite,Ag9FeTe2S4,"{""Ag"": 9.0, ""Fe"": 1.0, ""Te"": 2.0, ""S"": 4.0}",1410.115,#DAA520,orthorhombic,{33},2.51e-10
Chenite,CuPb4(SO4)2(OH)6,"{""Cu"": 1.0, ""Pb"": 4.0, ""S"": 2.0, ""O"": 14.0, ""H"": 6.0}",1186.5,#FFFFFF,triclinic,{47},3.003e-09
Chenmingite,FeCr2O4,"{""Fe"": 1.0, ""Cr"": 2.0, ""O"": 4.0}",223.833,#228B22,orthorhombic,{6},4.878e-08
Chenowethite,Mg(H2O)6[(UO2)2(SO4)2(OH)2]·5H2O,"{""Mg"": 1.0, ""H"": 24.0, ""O"": 25.0, ""U"": 2.0, ""S"": 2.0}",988.652,#FFFFFF,orthorhombic,{},2e-08
Chenzhangruite,MnFe2+Te4+4O10,"{""Mn"": 1.0, ""Fe"": 1.0, ""Te"": 4.0, ""O"": 10.0}",781.173,#556B2F,tetragonal,{},5e-08
Cheralite,CaTh(PO4)2,"{""Ca"": 1.0, ""Th"": 1.0, ""P"": 2.0, ""O"": 8.0}",462.058,#FFFFFF,monoclinic,"{34,36}",5.209e-09
Cheremnykhite,Pb3Zn3(TeO6)(VO4)2,"{""Pb"": 3.0, ""Zn"": 3.0, ""Te"": 1.0, ""O"": 14.0, ""V"": 2.0}",1271.21,#FFFFFF,orthorhombic,{47},1.5015e-07
Cherepanovite,RhAs,"{""Rh"": 1.0, ""As"": 1.0}",177.832,#808080,orthorhombic,"{26,33,36,37}",1.60985e-07
Chernikovite,(H3O)(UO2)(PO4)·3H2O,"{""H"": 9.0, ""O"": 10.0, ""U"": 1.0, ""P"": 1.0}",438.066,#FFFFFF,tetragonal,{47},1.5015e-08
Chernovite-(Y),Y(AsO4),"{""Y"": 1.0, ""As"": 1.0, ""O"": 4.0}",227.824,#808080,tetragonal,"{26,35}",5.3774e-08
Chernykhite,BaV2(Si2Al2)O10(OH)2,"{""Ba"": 1.0, ""V"": 2.0, ""Si"": 2.0, ""Al"": 2.0, ""O"": 12.0, ""H"": 2.0}",543.352,#FFFFFF,monoclinic,"{23,47}",1.908944e-06
Cherokeeite,[Pb2Zn(OH)4](SO4)·H2O,"{""Pb"": 2.0, ""Zn"": 1.0, ""O"": 9.0, ""H"": 6.0, ""S"": 1.0}",661.879,#FFFFFF,monoclinic,{47},3.003e-09
Chervetite,Pb2V5+2O7,"{""Pb"": 2.0, ""V"": 2.0, ""O"": 7.0}",628.277,#FFFFFF,monoclinic,{47},1.5015e-07
Chesnokovite,Na2SiO2(OH)2·8H2O,"{""Na"": 2.0, ""Si"": 1.0, ""O"": 12.0, ""H"": 18.0}",284.197,#FFFFFF,orthorhombic,{22},1.01215e-07
Chessexite,Na4Ca2Mg3Al8(SiO4)2(SO4)10(OH)10·40H2O,"{""Na"": 4.0, ""Ca"": 2.0, ""Mg"": 3.0, ""Al"": 8.0, ""Si"": 2.0, ""O"": 98.0, ""S"": 10.0, ""H"": 90.0}",2496.279,#FFFFFF,orthorhombic,{47},3.003e-09
Chesterite,Mg17Si20O54(OH)6,"{""Mg"": 17.0, ""Si"": 20.0, ""O"": 60.0, ""H"": 6.0}",1940.873,#FFFFFF,orthorhombic,{38},1.2037e-07
Chiappinoite-(Y),Y2Mn(Si3O7)4,"{""Y"": 2.0, ""Mn"": 1.0, ""Si"": 12.0, ""O"": 28.0}",1017.742,#FFFFFF,orthorhombic,"{9,35}",4.626e-09
Chiavennite,CaMn2+(BeOH)2Si5O13·2H2O,"{""Ca"": 1.0, ""Mn"": 1.0, ""Be"": 2.0, ""O"": 17.0, ""H"": 6.0, ""Si"": 5.0}",531.4964,#FFFFFF,orthorhombic,"{22,35}",2.713e-09
Chihmingite,NiAl2O4,"{""Ni"": 1.0, ""Al"": 2.0, ""O"": 4.0}",176.653,#7FFF00,cubic,{7},8.1301e-08
Chihuahuaite,FeAl12O19,"{""Fe"": 1.0, ""Al"": 12.0, ""O"": 19.0}",683.61,#8B4513,hexagonal,{6},9.2683e-08
Childrenite,Fe2+Al(PO4)(OH)2·H2O,"{""Fe"": 1.0, ""Al"": 1.0, ""P"": 1.0, ""O"": 7.0, ""H"": 4.0}",229.826,#556B2F,orthorhombic,"{22,34}",5.822e-09
Chinchorroite,Na2Mg5(As2O7)2(AsO3OH)2(H2O)10,"{""Na"": 2.0, ""Mg"": 5.0, ""As"": 6.0, ""O"": 32.0, ""H"": 22.0}",1151.181,#FFFFFF,triclinic,{47},1.5015e-07
Chinleite-(Ce),NaCe(SO4)2(H2O),"{""Na"": 1.0, ""Ce"": 1.0, ""S"": 2.0, ""O"": 9.0, ""H"": 2.0}",373.237,#FFFFFF,hexagonal,{},2e-08
Chinleite-(Nd),NaNd(SO4)2·H2O,"{""Na"": 1.0, ""Nd"": 1.0, ""S"": 2.0, ""O"": 9.0, ""H"": 2.0}",377.357,#FFFFFF,hexagonal,{},2e-08
Chinleite-(Y),NaY(SO4)2·H2O,"{""Na"": 1.0, ""Y"": 1.0, ""S"": 2.0, ""O"": 9.0, ""H"": 2.0}",322.023,#FFFFFF,hexagonal,{47},3.003e-09
Chinnerite,[Mg(H2O)6]Na(H2O)2Al3(PO4)2F6,"{""Mg"": 1.0, ""H"": 16.0, ""O"": 16.0, ""Na"": 1.0, ""Al"": 3.0, ""P"": 2.0, ""F"": 6.0}",576.289,#FFFFFF,monoclinic,{},5e-08
Chiolite,Na5Al3F14,"{""Na"": 5.0, ""Al"": 3.0, ""F"": 14.0}",461.868,#FFFFFF,tetragonal,"{23,34}",8.8826e-08
Chiyokoite,Ca3Si(CO3)[B(OH)4]O(OH)5·12H2O,"{""Ca"": 3.0, ""Si"": 1.0, ""C"": 1.0, ""O"": 25.0, ""B"": 1.0, ""H"": 33.0}",604.379,#FFFFFF,hexagonal,{31},2.809e-08
Chkalovite,Na2BeSi2O6,"{""Na"": 2.0, ""Be"": 1.0, ""Si"": 2.0, ""O"": 6.0}",207.1562,#FFFFFF,orthorhombic,{35},1.3774e-08
Chladniite,Na3CaMg11(PO4)9,"{""Na"": 3.0, ""Ca"": 1.0, ""Mg"": 11.0, ""P"": 9.0, ""O"": 36.0}",1231.133,#FFFFFF,hexagonal,"{5,6}",1.5516e-08
Chloraluminite,AlCl3·6H2O,"{""Al"": 1.0, ""Cl"": 3.0, ""H"": 12.0, ""O"": 6.0}",241.422,#FFFFFF,hexagonal,{45},2.3585e-08
Chlorapatite,Ca5(PO4)3Cl,"{""Ca"": 5.0, ""P"": 3.0, ""O"": 12.0, ""Cl"": 1.0}",520.75,#FFFFFF,hexagonal,"{5,6,8,23,31,34,55}",8.44927e-07
Chlorargyrite,AgCl,"{""Ag"": 1.0, ""Cl"": 1.0}",143.32,#C0C0C0,cubic,{47},1.5015e-07
Chlorbartonite,K6Fe24S26Cl,"{""K"": 6.0, ""Fe"": 24.0, ""S"": 26.0, ""Cl"": 1.0}",2443.878,#DAA520,tetragonal,"{33,35}",5.26e-10
Chloritoid,Fe2+Al2O(SiO4)(OH)2,"{""Fe"": 1.0, ""Al"": 2.0, ""O"": 7.0, ""Si"": 1.0, ""H"": 2.0}",251.903,#556B2F,triclinic,"{23,39,40}",2.1481476e-05
Chlorkyuygenite,Ca12Al14O32[(H2O)4Cl2],"{""Ca"": 12.0, ""Al"": 14.0, ""O"": 36.0, ""H"": 8.0, ""Cl"": 2.0}",1513.612,#FFFFFF,cubic,"{45,51}",1.0171e-07
Chlormagaluminite,Mg4Al2(OH)12Cl2(H2O)2,"{""Mg"": 4.0, ""Al"": 2.0, ""O"": 14.0, ""H"": 16.0, ""Cl"": 2.0}",462.198,#FFFFFF,hexagonal,"{31,47}",1.7824e-07
Chlormanganokalite,K4MnCl6,"{""K"": 4.0, ""Mn"": 1.0, ""Cl"": 6.0}",424.03,#FFB6C1,hexagonal,"{45,54}",3.316e-09
Chlorocalcite,KCaCl3,"{""K"": 1.0, ""Ca"": 1.0, ""Cl"": 3.0}",185.526,#FFFFFF,unknown,"{25,45}",7.1204e-08
Chloromagnesite,MgCl2,"{""Mg"": 1.0, ""Cl"": 2.0}",95.205,#FFFFFF,hexagonal,"{45,50,54}",1.0295e-07
Chloromenite,Cu9O2(Se4+O3)4Cl6,"{""Cu"": 9.0, ""O"": 14.0, ""Se"": 4.0, ""Cl"": 6.0}",1324.484,#FFFFFF,monoclinic,{45},2.3585e-08
Chlorothionite,K2Cu(SO4)Cl2,"{""K"": 2.0, ""Cu"": 1.0, ""S"": 1.0, ""O"": 4.0, ""Cl"": 2.0}",308.698,#FFFFFF,orthorhombic,{45},4.72e-10
Chloroxiphite,Pb3CuO2Cl2(OH)2,"{""Pb"": 3.0, ""Cu"": 1.0, ""O"": 4.0, ""Cl"": 2.0, ""H"": 2.0}",822.058,#FFFFFF,monoclinic,"{47,56}",2.2008e-07
Chondrodite,Mg5(SiO4)2F2,"{""Mg"": 5.0, ""Si"": 2.0, ""O"": 8.0, ""F"": 2.0}",343.683,#FFFFFF,monoclinic,"{7,31,36,40,50,54}",4.81375e-07
Chongite,Ca3Mg2(AsO4)2(AsO3OH)2·4H2O,"{""Ca"": 3.0, ""Mg"": 2.0, ""As"": 4.0, ""O"": 20.0, ""H"": 10.0}",798.592,#FFFFFF,monoclinic,"{47,55}",1.88029e-07
Chopinite,Mg3(PO4)2,"{""Mg"": 3.0, ""P"": 2.0, ""O"": 8.0}",262.855,#FFFFFF,monoclinic,{6},4.878e-09
Chrisstanleyite,Ag2Pd3Se4,"{""Ag"": 2.0, ""Pd"": 3.0, ""Se"": 4.0}",850.884,#C0C0C0,monoclinic,{33},1.2547e-08
Christelite,Zn3Cu2(SO4)2(OH)6·4H2O,"{""Zn"": 3.0, ""Cu"": 2.0, ""S"": 2.0, ""O"": 18.0, ""H"": 14.0}",689.446,#FFFFFF,triclinic,{47},3.003e-09
Christite,TlHgAsS3,"{""Tl"": 1.0, ""Hg"": 1.0, ""As"": 1.0, ""S"": 3.0}",576.072,#FFD700,monoclinic,"{23,32,33}",3.5912e-08
Chromatite,CaCr6+O4,"{""Ca"": 1.0, ""Cr"": 1.0, ""O"": 4.0}",156.07,#228B22,tetragonal,"{33,51}",9.0672e-08
Chrombismite,Bi16CrO27,"{""Bi"": 16.0, ""Cr"": 1.0, ""O"": 27.0}",3827.649,#228B22,tetragonal,"{23,33}",1.771341e-06
Chromceladonite,KMgCr(Si4O10)(OH)2,"{""K"": 1.0, ""Mg"": 1.0, ""Cr"": 1.0, ""Si"": 4.0, ""O"": 12.0, ""H"": 2.0}",421.743,#FFFFFF,monoclinic,{34},1.773e-08
Chromio-pargasite,NaCa2(Mg4Cr)(Si6Al2)O22(OH)2,"{""Na"": 1.0, ""Ca"": 2.0, ""Mg"": 4.0, ""Cr"": 1.0, ""Si"": 6.0, ""Al"": 2.0, ""O"": 24.0, ""H"": 2.0}",860.828,#FFFFFF,monoclinic,"{7,9}",1.60041e-07
Chromite,Fe2+Cr2O4,"{""Fe"": 1.0, ""Cr"": 2.0, ""O"": 4.0}",223.833,#228B22,cubic,"{1,4,5,6,7,8,26,36,37,38,51}",7.674545e-06
Chromium,Cr,"{""Cr"": 1.0}",51.996,#228B22,hexagonal,"{7,13,36,38}",3.57511e-07
Chromium-dravite,NaMg3Cr6(Si6O18)(BO3)3(OH)3(OH),"{""Na"": 1.0, ""Mg"": 3.0, ""Cr"": 6.0, ""Si"": 6.0, ""O"": 31.0, ""B"": 3.0, ""H"": 4.0}",1108.822,#FFFFFF,hexagonal,"{23,31}",1.786884e-06
Chromo-alumino-povondraite,NaCr3(Al4Mg2)(Si6O18)(BO3)3(OH)3O,"{""Na"": 1.0, ""Cr"": 3.0, ""Al"": 4.0, ""Mg"": 2.0, ""Si"": 6.0, ""O"": 31.0, ""B"": 3.0, ""H"": 3.0}",1035.449,#FFFFFF,hexagonal,"{23,31}",1.786884e-06
Chromphyllite,KCr2(AlSi3O10)(OH)2,"{""K"": 1.0, ""Cr"": 2.0, ""Al"": 1.0, ""Si"": 3.0, ""O"": 12.0, ""H"": 2.0}",448.331,#FFFFFF,monoclinic,"{23,34}",1.776524e-06
Chromschieffelinite,Pb10Te6+6O20(OH)14(CrO4)(H2O)5,"{""Pb"": 10.0, ""Te"": 6.0, ""O"": 43.0, ""H"": 24.0, ""Cr"": 1.0}",3601.745,#FFFFFF,orthorhombic,{47},1.5015e-07
Chromviskontite,Pb5Cu2(CrO4)3(SeO3)(OH)6,"{""Pb"": 5.0, ""Cu"": 2.0, ""Cr"": 3.0, ""O"": 21.0, ""Se"": 1.0, ""H"": 6.0}",1740.078,#FFFFFF,orthorhombic,{},1e-06
Chrysoberyl,BeAl2O4,"{""Be"": 1.0, ""Al"": 2.0, ""O"": 4.0}",126.9722,#FFFFFF,orthorhombic,"{26,34}",5.773e-08
Chrysothallite,K6Cu6Tl3+Cl17(OH)4·H2O,"{""K"": 6.0, ""Cu"": 6.0, ""Tl"": 1.0, ""Cl"": 17.0, ""O"": 5.0, ""H"": 6.0}",1508.937,#FFFFFF,tetragonal,{45},2.3585e-08
Chrysotile,Mg3Si2O5(OH)4,"{""Mg"": 3.0, ""Si"": 2.0, ""O"": 9.0, ""H"": 4.0}",277.108,#FFFFFF,monoclinic,"{13,23,24,38,40}",1.5002213e-05
Chubarovite,KZn2(BO3)Cl2,"{""K"": 1.0, ""Zn"": 2.0, ""B"": 1.0, ""O"": 3.0, ""Cl"": 2.0}",299.565,#FFFFFF,hexagonal,{45},2.3585e-08
Chudobaite,Mg5(AsO4)2(AsO3OH)2·10H2O,"{""Mg"": 5.0, ""As"": 4.0, ""O"": 26.0, ""H"": 22.0}",859.363,#FFFFFF,triclinic,{47},1.5015e-07
Chukanovite,Fe2(CO3)(OH)2,"{""Fe"": 2.0, ""C"": 1.0, ""O"": 5.0, ""H"": 2.0}",205.712,#556B2F,monoclinic,{47},1.5015e-07
Chukhrovite-(Ce),Ca3CeAl2(SO4)F13·12H2O,"{""Ca"": 3.0, ""Ce"": 1.0, ""Al"": 2.0, ""S"": 1.0, ""O"": 16.0, ""F"": 13.0, ""H"": 24.0}",873.528,#FFFFFF,cubic,"{46,47}",6.849e-09
Chukhrovite-(Nd),Ca3NdAl2(SO4)F13·12H2O,"{""Ca"": 3.0, ""Nd"": 1.0, ""Al"": 2.0, ""S"": 1.0, ""O"": 16.0, ""F"": 13.0, ""H"": 24.0}",877.648,#FFFFFF,cubic,"{46,47}",6.849e-09
Chukhrovite-(Y),Ca3YAl2(SO4)F13·12H2O,"{""Ca"": 3.0, ""Y"": 1.0, ""Al"": 2.0, ""S"": 1.0, ""O"": 16.0, ""F"": 13.0, ""H"": 24.0}",822.314,#FFFFFF,cubic,"{46,47}",6.849e-09