name,formula,elements,density,color,crystal,pm_ids,gacha_weight
Ferro-ferri-katophorite,Na(NaCa)(Fe2+4Fe3+)(Si7Al)O22(OH)2,"{""Na"": 2.0, ""Ca"": 1.0, ""Fe"": 5.0, ""Si"": 7.0, ""Al"": 1.0, ""O"": 24.0, ""H"": 2.0}",974.852,#556B2F,monoclinic,"{31,35}",1082.0
Ferro-ferri-nyboite,NaNa2(Fe2+3Fe3+2)(Si7Al)O22(OH)2,"{""Na"": 3.0, ""Fe"": 5.0, ""Si"": 7.0, ""Al"": 1.0, ""O"": 24.0, ""H"": 2.0}",957.764,#556B2F,monoclinic,"{17,35,36}",1068.0
Ferro-ferri-obertiite,NaNa2(Fe2+3Fe3+Ti)Si8O22O2,"{""Na"": 3.0, ""Fe"": 4.0, ""Ti"": 1.0, ""Si"": 8.0, ""O"": 24.0}",948.873,#556B2F,monoclinic,{10},107.0
Ferro-ferri-pedrizite,NaLi2(Fe2+2Fe3+2Li)Si8O22(OH)2,"{""Na"": 1.0, ""Li"": 3.0, ""Fe"": 4.0, ""Si"": 8.0, ""O"": 24.0, ""H"": 2.0}",877.862,#556B2F,monoclinic,"{22,34}",811.0
Ferrofettelite,[Ag6As2S7][Ag10FeAs2S8],"{""Ag"": 16.0, ""As"": 4.0, ""S"": 15.0, ""Fe"": 1.0}",2562.353,#DAA520,monoclinic,{33},797.0
Ferro-fluoro-edenite,NaCa2Fe2+5(Si7AlO22)F2,"{""Na"": 1.0, ""Ca"": 2.0, ""Fe"": 5.0, ""Si"": 7.0, ""Al"": 1.0, ""O"": 22.0, ""F"": 2.0}",995.922,#556B2F,monoclinic,{9},127.0
Ferro-fluoro-pedrizite,NaLi2(Fe2+2Al2Li)Si8O22F2,"{""Na"": 1.0, ""Li"": 3.0, ""Fe"": 2.0, ""Al"": 2.0, ""Si"": 8.0, ""O"": 22.0, ""F"": 2.0}",824.118,#556B2F,monoclinic,"{22,34}",811.0
Ferrohexahydrite,Fe2+(SO4)·6H2O,"{""Fe"": 1.0, ""S"": 1.0, ""O"": 10.0, ""H"": 12.0}",259.991,#556B2F,unknown,"{25,45,47}",2632.0
Ferroinnelite,Ba4Ti2Na(NaFe2+)Ti(Si2O7)2[(SO4)(PO4)]O2[O(OH)],"{""Ba"": 4.0, ""Ti"": 3.0, ""Na"": 2.0, ""Fe"": 1.0, ""Si"": 4.0, ""O"": 26.0, ""S"": 1.0, ""P"": 1.0, ""H"": 1.0}",1387.102,#556B2F,triclinic,{},1.0
Ferro-katophorite,Na(NaCa)(Fe2+4Al)(Si7Al)O22(OH)2,"{""Na"": 2.0, ""Ca"": 1.0, ""Fe"": 4.0, ""Al"": 2.0, ""Si"": 7.0, ""O"": 24.0, ""H"": 2.0}",945.989,#556B2F,monoclinic,"{35,39}",796.0
Ferrokinoshitalite,BaFe2+3(Si2Al2)O10(OH)2,"{""Ba"": 1.0, ""Fe"": 3.0, ""Si"": 2.0, ""Al"": 2.0, ""O"": 12.0, ""H"": 2.0}",609.003,#556B2F,monoclinic,{31},356.0
Ferrolaueite,Fe2+Fe3+2(PO4)2(OH)2·8H2O,"{""Fe"": 3.0, ""P"": 2.0, ""O"": 18.0, ""H"": 18.0}",535.609,#556B2F,triclinic,{47},1998.0
Ferromerrillite,Ca9NaFe2+(PO4)7,"{""Ca"": 9.0, ""Na"": 1.0, ""Fe"": 1.0, ""P"": 7.0, ""O"": 28.0}",1104.327,#556B2F,unknown,{6},205.0
Ferronickelplatinum,Pt2FeNi,"{""Pt"": 2.0, ""Fe"": 1.0, ""Ni"": 1.0}",504.698,#7FFF00,tetragonal,"{7,26,37,38}",616.0
Ferronordite-(Ce),Na3SrCeFe2+Si6O17,"{""Na"": 3.0, ""Sr"": 1.0, ""Ce"": 1.0, ""Fe"": 1.0, ""Si"": 6.0, ""O"": 17.0}",793.048,#556B2F,orthorhombic,{35},726.0
Ferronordite-(La),Na3SrLaFe2+Si6O17,"{""Na"": 3.0, ""Sr"": 1.0, ""La"": 1.0, ""Fe"": 1.0, ""Si"": 6.0, ""O"": 17.0}",791.838,#556B2F,orthorhombic,{35},726.0
Ferro-papikeite,NaFe2+2(Fe2+3Al2)(Si5Al3)O22(OH)2,"{""Na"": 1.0, ""Fe"": 5.0, ""Al"": 5.0, ""Si"": 5.0, ""O"": 24.0, ""H"": 2.0}",963.542,#556B2F,orthorhombic,{40},319.0
Ferro-pargasite,NaCa2(Fe2+4Al)(Si6Al2)O22(OH)2,"{""Na"": 1.0, ""Ca"": 2.0, ""Fe"": 4.0, ""Al"": 3.0, ""Si"": 6.0, ""O"": 24.0, ""H"": 2.0}",961.974,#556B2F,monoclinic,"{8,10,26,35,40}",1495.0
Ferro-pedrizite,NaLi2(Fe2+2Al2Li)Si8O22(OH)2,"{""Na"": 1.0, ""Li"": 3.0, ""Fe"": 2.0, ""Al"": 2.0, ""Si"": 8.0, ""O"": 24.0, ""H"": 2.0}",820.136,#556B2F,monoclinic,"{22,34}",811.0
Ferroqingheiite,Na2Fe2+MgAl(PO4)3,"{""Na"": 2.0, ""Fe"": 1.0, ""Mg"": 1.0, ""Al"": 1.0, ""P"": 3.0, ""O"": 12.0}",438.022,#556B2F,monoclinic,{34},564.0
Ferro-richterite,Na(NaCa)Fe2+5Si8O22(OH)2,"{""Na"": 2.0, ""Ca"": 1.0, ""Fe"": 5.0, ""Si"": 8.0, ""O"": 24.0, ""H"": 2.0}",975.955,#556B2F,unknown,{19},143.0
Ferroselite,FeSe2,"{""Fe"": 1.0, ""Se"": 2.0}",213.787,#8B4513,orthorhombic,"{33,53}",914.0
Ferrosilite,Fe2+2Si2O6,"{""Fe"": 2.0, ""Si"": 2.0, ""O"": 6.0}",263.854,#8B4513,monoclinic,"{19,20,31,35,40,50,54}",2096.0
Ferroskutterudite,FeAs3,"{""Fe"": 1.0, ""As"": 3.0}",280.611,#8B4513,cubic,"{33,36,38}",1196.0
Ferrostalderite,CuFe2TlAs2S6,"{""Cu"": 1.0, ""Fe"": 2.0, ""Tl"": 1.0, ""As"": 2.0, ""S"": 6.0}",721.82,#DAA520,tetragonal,{33},797.0
Ferrostrunzite,Fe2+Fe3+2(PO4)2(OH)2·6H2O,"{""Fe"": 3.0, ""P"": 2.0, ""O"": 16.0, ""H"": 14.0}",499.579,#556B2F,triclinic,"{34,47}",2562.0
Ferrotaaffeite-6N3S,BeFe2+2Al6O12,"{""Be"": 1.0, ""Fe"": 2.0, ""Al"": 6.0, ""O"": 12.0}",474.5822,#556B2F,hexagonal,{34},564.0
Ferro-taramite,Na(NaCa)(Fe2+3Al2)(Si6Al2)O22(OH)2,"{""Na"": 2.0, ""Ca"": 1.0, ""Fe"": 3.0, ""Al"": 4.0, ""Si"": 6.0, ""O"": 24.0, ""H"": 2.0}",916.023,#556B2F,monoclinic,{39},70.0
Ferrotitanowodginite,Fe2+TiTa2O8,"{""Fe"": 1.0, ""Ti"": 1.0, ""Ta"": 2.0, ""O"": 8.0}",593.604,#556B2F,monoclinic,{34},564.0
Ferrotorryweiserite,Rh5Fe10S16,"{""Rh"": 5.0, ""Fe"": 10.0, ""S"": 16.0}",1585.96,#DAA520,hexagonal,{33},797.0
Ferrotychite,Na6Fe2+2(CO3)4(SO4),"{""Na"": 6.0, ""Fe"": 2.0, ""C"": 4.0, ""O"": 16.0, ""S"": 1.0}",585.718,#556B2F,cubic,{35},726.0
Ferrovorontsovite,(Fe5Cu)TlAs4S12,"{""Fe"": 5.0, ""Cu"": 1.0, ""Tl"": 1.0, ""As"": 4.0, ""S"": 12.0}",1231.559,#DAA520,cubic,{33},797.0
Ferrowyllieite,NaNaFe2+(Fe2+Al)(PO4)3,"{""Na"": 2.0, ""Fe"": 2.0, ""Al"": 1.0, ""P"": 3.0, ""O"": 12.0}",469.562,#556B2F,monoclinic,{34},564.0
Ferruccite,NaBF4,"{""Na"": 1.0, ""B"": 1.0, ""F"": 4.0}",109.792,#FFFFFF,orthorhombic,{45},424.0
Fersmite,CaNb2O6,"{""Ca"": 1.0, ""Nb"": 2.0, ""O"": 6.0}",321.884,#FFFFFF,orthorhombic,"{35,36}",1017.0
Feruvite,CaFe2+3(Al5Mg)(Si6O18)(BO3)3(OH)3(OH),"{""Ca"": 1.0, ""Fe"": 3.0, ""Al"": 5.0, ""Mg"": 1.0, ""Si"": 6.0, ""O"": 31.0, ""B"": 3.0, ""H"": 4.0}",1067.769,#556B2F,hexagonal,"{23,34,40}",1281.0
Fervanite,Fe3+4V5+4O16·5H2O,"{""Fe"": 4.0, ""V"": 4.0, ""O"": 21.0, ""H"": 10.0}",773.207,#556B2F,unknown,{47},1998.0
Fettelite,[Ag6As2S7][Ag10HgAs2S8],"{""Ag"": 16.0, ""As"": 4.0, ""S"": 15.0, ""Hg"": 1.0}",2707.098,#FFD700,hexagonal,{33},797.0
Fibroferrite,Fe3+(SO4)(OH)·5H2O,"{""Fe"": 1.0, ""S"": 1.0, ""O"": 10.0, ""H"": 11.0}",258.983,#556B2F,hexagonal,"{25,45,47}",2632.0
Fichtelite,C19H34,"{""C"": 19.0, ""H"": 34.0}",262.481,#FFFFFF,monoclinic,"{17,53}",168.0
Fiedlerite,Pb3Cl4F(OH)·H2O,"{""Pb"": 3.0, ""Cl"": 4.0, ""F"": 1.0, ""O"": 2.0, ""H"": 3.0}",817.42,#FFFFFF,monoclinic,"{47,56}",2141.0
Fiemmeite,Cu2(C2O4)(OH)2·2H2O,"{""Cu"": 2.0, ""C"": 2.0, ""O"": 8.0, ""H"": 6.0}",285.154,#FFFFFF,monoclinic,"{50,53}",390.0
Finchite,Sr(UO2)2(V2O8)·5H2O,"{""Sr"": 1.0, ""U"": 2.0, ""O"": 17.0, ""V"": 2.0, ""H"": 10.0}",947.627,#FFFFFF,orthorhombic,{47},1998.0
Finescreekite,[Pb4(OH)4](S2O3)2,"{""Pb"": 4.0, ""O"": 10.0, ""H"": 4.0, ""S"": 4.0}",1121.062,#FFFFFF,orthorhombic,{47},1998.0
Fingerite,Cu11O2(VO4)6,"{""Cu"": 11.0, ""O"": 26.0, ""V"": 6.0}",1420.632,#00BFFF,triclinic,{45},424.0
Finnemanite,Pb5(As3+O3)3Cl,"{""Pb"": 5.0, ""As"": 3.0, ""O"": 9.0, ""Cl"": 1.0}",1440.207,#FFFFFF,hexagonal,"{32,47}",2410.0
Fischesserite,Ag3AuSe2,"{""Ag"": 3.0, ""Au"": 1.0, ""Se"": 2.0}",678.522,#FFD700,cubic,"{23,33}",1195.0
Fizelyite,Ag5Pb14Sb21S48,"{""Ag"": 5.0, ""Pb"": 14.0, ""Sb"": 21.0, ""S"": 48.0}",7535.99,#708090,monoclinic,{33},797.0
Flaggite,Pb4Cu2+4Te6+2(SO4)2O11(OH)2(H2O),"{""Pb"": 4.0, ""Cu"": 4.0, ""Te"": 2.0, ""S"": 2.0, ""O"": 22.0, ""H"": 4.0}",1758.314,#FFFFFF,triclinic,{47},1998.0
Flagstaffite,C10H22O3,"{""C"": 10.0, ""H"": 22.0, ""O"": 3.0}",190.283,#FFFFFF,orthorhombic,{53},117.0
Fleetite,Cu2RhIrSb2,"{""Cu"": 2.0, ""Rh"": 1.0, ""Ir"": 1.0, ""Sb"": 2.0}",665.742,#FFFFFF,cubic,"{26,33}",1047.0
Fleischerite,Pb3Ge(SO4)2(OH)6·3H2O,"{""Pb"": 3.0, ""Ge"": 1.0, ""S"": 2.0, ""O"": 17.0, ""H"": 12.0}",1042.429,#FFFFFF,hexagonal,{47},1998.0
Fleisstalite,Fe2+(SO3)·3H2O,"{""Fe"": 1.0, ""S"": 1.0, ""O"": 6.0, ""H"": 6.0}",189.947,#556B2F,orthorhombic,{47},1998.0
Fletcherite,CuNi2S4,"{""Cu"": 1.0, ""Ni"": 2.0, ""S"": 4.0}",309.172,#A9A9A9,cubic,{33},797.0
Florencite-(Ce),CeAl3(PO4)2(OH)6,"{""Ce"": 1.0, ""Al"": 3.0, ""P"": 2.0, ""O"": 14.0, ""H"": 6.0}",513.048,#FFFFFF,hexagonal,"{47,52}",2070.0
Florencite-(La),LaAl3(PO4)2(OH)6,"{""La"": 1.0, ""Al"": 3.0, ""P"": 2.0, ""O"": 14.0, ""H"": 6.0}",511.838,#FFFFFF,unknown,"{24,47}",2072.0
Florencite-(Nd),NdAl3(PO4)2(OH)6,"{""Nd"": 1.0, ""Al"": 3.0, ""P"": 2.0, ""O"": 14.0, ""H"": 6.0}",517.168,#FFFFFF,hexagonal,{47},1998.0
Florencite-(Sm),SmAl3(PO4)2(OH)6,"{""Sm"": 1.0, ""Al"": 3.0, ""P"": 2.0, ""O"": 14.0, ""H"": 6.0}",523.288,#FFFFFF,hexagonal,{47},1998.0
Florenskyite,FeTiP,"{""Fe"": 1.0, ""Ti"": 1.0, ""P"": 1.0}",134.686,#8B4513,orthorhombic,{6},205.0
Florkeite,(K3Ca2Na)[Al8Si8O32]·12H2O,"{""K"": 3.0, ""Ca"": 2.0, ""Na"": 1.0, ""Al"": 8.0, ""Si"": 8.0, ""O"": 44.0, ""H"": 24.0}",1389.124,#FFFFFF,triclinic,{8},93.0
Fluellite,Al2(PO4)F2(OH)·7H2O,"{""Al"": 2.0, ""P"": 1.0, ""O"": 12.0, ""F"": 2.0, ""H"": 15.0}",330.042,#FFFFFF,orthorhombic,{47},1998.0
Fluoborite,Mg3(BO3)F3,"{""Mg"": 3.0, ""B"": 1.0, ""O"": 3.0, ""F"": 3.0}",188.716,#FFFFFF,hexagonal,"{23,45}",822.0
Fluocerite-(Ce),CeF3,"{""Ce"": 1.0, ""F"": 3.0}",197.114,#FFFFFF,hexagonal,"{23,35,36}",1415.0
Fluocerite-(La),LaF3,"{""La"": 1.0, ""F"": 3.0}",195.904,#FFFFFF,hexagonal,"{23,35,36}",1415.0
Fluoralforsite,Ba5(PO4)3F,"{""Ba"": 5.0, ""P"": 3.0, ""O"": 12.0, ""F"": 1.0}",990.558,#FFFFFF,hexagonal,{},1.0
Fluorannite,KFe2+3(Si3Al)O10F2,"{""K"": 1.0, ""Fe"": 3.0, ""Si"": 3.0, ""Al"": 1.0, ""O"": 10.0, ""F"": 2.0}",515.856,#556B2F,monoclinic,"{8,9,19,20,31,34,35,40}",2373.0
Fluorapatite,Ca5(PO4)3F,"{""Ca"": 5.0, ""P"": 3.0, ""O"": 12.0, ""F"": 1.0}",504.298,#FFFFFF,monoclinic,"{6,19,21,23,24,34,35,36,40,48,49}",2947.0
Fluorapophyllite-(Cs),CsCa4(Si8O20)F(H2O)8,"{""Cs"": 1.0, ""Ca"": 4.0, ""Si"": 8.0, ""O"": 28.0, ""F"": 1.0, ""H"": 16.0}",1001.0,#FFFFFF,tetragonal,{35},726.0
Fluorapophyllite-(K),KCa4Si8O20F·8H2O,"{""K"": 1.0, ""Ca"": 4.0, ""Si"": 8.0, ""O"": 28.0, ""F"": 1.0, ""H"": 16.0}",907.188,#FFFFFF,tetragonal,"{19,23,35,40}",1586.0
Fluorapophyllite-(Na),NaCa4Si8O20F·8H2O,"{""Na"": 1.0, ""Ca"": 4.0, ""Si"": 8.0, ""O"": 28.0, ""F"": 1.0, ""H"": 16.0}",891.08,#FFFFFF,orthorhombic,"{19,23,35,40}",1586.0
Fluorapophyllite-(NH4),(NH4)Ca4(Si8O20)F·8H2O,"{""N"": 1.0, ""H"": 20.0, ""Ca"": 4.0, ""Si"": 8.0, ""O"": 28.0, ""F"": 1.0}",886.129,#FFFFFF,tetragonal,{20},45.0
Fluorarrojadite-(BaFe),Na2CaBaFe2+Fe2+13Al(PO4)11(PO3OH)F2,"{""Na"": 2.0, ""Ca"": 1.0, ""Ba"": 1.0, ""Fe"": 14.0, ""Al"": 1.0, ""P"": 12.0, ""O"": 48.0, ""H"": 1.0, ""F"": 2.0}",2210.844,#556B2F,monoclinic,{34},564.0
Fluorarrojadite-(BaNa),BaNa4CaFe13Al(PO4)11(PO3OH)F2,"{""Ba"": 1.0, ""Na"": 4.0, ""Ca"": 1.0, ""Fe"": 13.0, ""Al"": 1.0, ""P"": 12.0, ""O"": 48.0, ""H"": 1.0, ""F"": 2.0}",2200.979,#556B2F,monoclinic,{34},564.0
Fluorbarytolamprophyllite,(BaK)Ti2Na3Ti(Si2O7)2O2F2,"{""Ba"": 1.0, ""K"": 1.0, ""Ti"": 3.0, ""Na"": 3.0, ""Si"": 4.0, ""O"": 16.0, ""F"": 2.0}",795.319,#FFFFFF,monoclinic,{35},726.0
Fluorbritholite-(La),Ca2La3(SiO4)3F,"{""Ca"": 2.0, ""La"": 3.0, ""Si"": 3.0, ""O"": 12.0, ""F"": 1.0}",792.127,#FFFFFF,hexagonal,{},1.0
Fluorbritholite-(Nd),Ca2Nd3(SiO4)3F,"{""Ca"": 2.0, ""Nd"": 3.0, ""Si"": 3.0, ""O"": 12.0, ""F"": 1.0}",808.117,#FFFFFF,hexagonal,{},1.0
Fluor-buergerite,NaFe3+3Al6(Si6O18)(BO3)3O3F,"{""Na"": 1.0, ""Fe"": 3.0, ""Al"": 6.0, ""Si"": 6.0, ""O"": 30.0, ""B"": 3.0, ""F"": 1.0}",1052.325,#556B2F,hexagonal,"{20,34}",609.0
Fluorcanasite,K3Na3Ca5Si12O30F4·H2O,"{""K"": 3.0, ""Na"": 3.0, ""Ca"": 5.0, ""Si"": 12.0, ""O"": 31.0, ""F"": 4.0, ""H"": 2.0}",1297.651,#FFFFFF,monoclinic,{35},726.0
Fluorcaphite,SrCaCa3(PO4)3F,"{""Sr"": 1.0, ""Ca"": 4.0, ""P"": 3.0, ""O"": 12.0, ""F"": 1.0}",551.84,#FFFFFF,hexagonal,{36},291.0
Fluorcarletonite,KNa4Ca4Si8O18(CO3)4F·H2O,"{""K"": 1.0, ""Na"": 4.0, ""Ca"": 4.0, ""Si"": 8.0, ""O"": 31.0, ""C"": 4.0, ""F"": 1.0, ""H"": 2.0}",1081.077,#FFFFFF,tetragonal,{35},726.0
Fluorchegemite,Ca7(SiO4)3F2,"{""Ca"": 7.0, ""Si"": 3.0, ""O"": 12.0, ""F"": 2.0}",594.785,#FFFFFF,unknown,{9},127.0
Fluor-dravite,NaMg3Al6(Si6O18)(BO3)3(OH)3F,"{""Na"": 1.0, ""Mg"": 3.0, ""Al"": 6.0, ""Si"": 6.0, ""O"": 30.0, ""B"": 3.0, ""H"": 3.0, ""F"": 1.0}",960.729,#FFFFFF,hexagonal,"{23,34,40}",1281.0
Fluorite,CaF2,"{""Ca"": 1.0, ""F"": 2.0}",78.074,#FFFFFF,cubic,"{19,23,26,31,32,34,35,36,49,50,53,54}",3841.0
Fluorkyuygenite,Ca12Al14O32[(H2O)4F2],"{""Ca"": 12.0, ""Al"": 14.0, ""O"": 36.0, ""H"": 8.0, ""F"": 2.0}",1480.708,#FFFFFF,cubic,{51},128.0
Fluorlamprophyllite,(SrNa)Ti2Na3Ti(Si2O7)2O2F2,"{""Sr"": 1.0, ""Na"": 4.0, ""Ti"": 3.0, ""Si"": 4.0, ""O"": 16.0, ""F"": 2.0}",729.501,#FFFFFF,monoclinic,{35},726.0
Fluor-liddicoatite,Ca(Li2Al)Al6(Si6O18)(BO3)3(OH)3F,"{""Ca"": 1.0, ""Li"": 2.0, ""Al"": 7.0, ""Si"": 6.0, ""O"": 30.0, ""B"": 3.0, ""H"": 3.0, ""F"": 1.0}",945.764,#FFFFFF,hexagonal,{34},564.0
Fluoro-cannilloite,CaCa2(Mg4Al)(Si5Al3)O22F2,"{""Ca"": 3.0, ""Mg"": 4.0, ""Al"": 4.0, ""Si"": 5.0, ""O"": 22.0, ""F"": 2.0}",855.781,#FFFFFF,monoclinic,{31},356.0
Fluorocronite,PbF2,"{""Pb"": 1.0, ""F"": 2.0}",245.196,#FFFFFF,cubic,{47},1998.0
Fluoro-edenite,NaCa2Mg5(Si7Al)O22F2,"{""Na"": 1.0, ""Ca"": 2.0, ""Mg"": 5.0, ""Si"": 7.0, ""Al"": 1.0, ""O"": 22.0, ""F"": 2.0}",838.222,#FFFFFF,monoclinic,"{8,19,20,31,34,35,40}",2246.0
Fluorokinoshitalite,BaMg3Al2Si2O10F2,"{""Ba"": 1.0, ""Mg"": 3.0, ""Al"": 2.0, ""Si"": 2.0, ""O"": 10.0, ""F"": 2.0}",518.365,#FFFFFF,monoclinic,{32},412.0
Fluoro-leakeite,NaNa2(Mg2Al2Li)Si8O22F2,"{""Na"": 3.0, ""Mg"": 2.0, ""Al"": 2.0, ""Li"": 1.0, ""Si"": 8.0, ""O"": 22.0, ""F"": 2.0}",793.138,#FFFFFF,monoclinic,{35},726.0
Fluoro-nyboite,NaNa2(Mg3Al2)(Si7Al)O22F2,"{""Na"": 3.0, ""Mg"": 3.0, ""Al"": 3.0, ""Si"": 7.0, ""O"": 22.0, ""F"": 2.0}",809.4,#FFFFFF,monoclinic,"{17,35,36}",1068.0
Fluoro-pargasite,NaCa2(Mg4Al)(Si6Al2)O22F2,"{""Na"": 1.0, ""Ca"": 2.0, ""Mg"": 4.0, ""Al"": 3.0, ""Si"": 6.0, ""O"": 22.0, ""F"": 2.0}",839.796,#FFFFFF,monoclinic,"{19,20,31,34}",1108.0
Fluoro-pedrizite,NaLi2(Mg2Al2Li)Si8O22F2,"{""Na"": 1.0, ""Li"": 3.0, ""Mg"": 2.0, ""Al"": 2.0, ""Si"": 8.0, ""O"": 22.0, ""F"": 2.0}",761.038,#FFFFFF,monoclinic,{34},564.0
Fluorophlogopite,KMg3(Si3Al)O10F2,"{""K"": 1.0, ""Mg"": 3.0, ""Si"": 3.0, ""Al"": 1.0, ""O"": 10.0, ""F"": 2.0}",421.236,#FFFFFF,hexagonal,"{11,31,35,36,40}",1728.0
Fluoro-richterite,Na(NaCa)Mg5Si8O22F2,"{""Na"": 2.0, ""Ca"": 1.0, ""Mg"": 5.0, ""Si"": 8.0, ""O"": 22.0, ""F"": 2.0}",822.237,#FFFFFF,monoclinic,{5},94.0
Fluoro-taramite,Na(NaCa)(Mg3Al2)(Si6Al2)O22F2,"{""Na"": 2.0, ""Ca"": 1.0, ""Mg"": 3.0, ""Al"": 4.0, ""Si"": 6.0, ""O"": 22.0, ""F"": 2.0}",825.385,#FFFFFF,monoclinic,{39},70.0
Fluorotetraferriphlogopite,KMg3Fe3+Si3O10F2,"{""K"": 1.0, ""Mg"": 3.0, ""Fe"": 1.0, ""Si"": 3.0, ""O"": 10.0, ""F"": 2.0}",450.099,#556B2F,monoclinic,"{7,31,35,36,40}",1815.0
Fluorowardite,NaAl3(PO4)2(OH)2F2·2H2O,"{""Na"": 1.0, ""Al"": 3.0, ""P"": 2.0, ""O"": 12.0, ""H"": 6.0, ""F"": 2.0}",401.916,#FFFFFF,tetragonal,{47},1998.0
Fluorphosphohedyphane,Ca2Pb3(PO4)3F,"{""Ca"": 2.0, ""Pb"": 3.0, ""P"": 3.0, ""O"": 12.0, ""F"": 1.0}",1005.664,#FFFFFF,hexagonal,{47},1998.0
Fluorpyromorphite,Pb5(PO4)3F,"{""Pb"": 5.0, ""P"": 3.0, ""O"": 12.0, ""F"": 1.0}",1339.908,#FFFFFF,hexagonal,{32},412.0
Fluor-schorl,NaFe2+3Al6(Si6O18)(BO3)3(OH)3F,"{""Na"": 1.0, ""Fe"": 3.0, ""Al"": 6.0, ""Si"": 6.0, ""O"": 30.0, ""B"": 3.0, ""H"": 3.0, ""F"": 1.0}",1055.349,#556B2F,hexagonal,"{23,34,40}",1281.0
Fluorsigaiite,Ca2Sr3(PO4)3F,"{""Ca"": 2.0, ""Sr"": 3.0, ""P"": 3.0, ""O"": 12.0, ""F"": 1.0}",646.924,#FFFFFF,hexagonal,{35},726.0
Fluorstrophite,SrCaSr3(PO4)3F,"{""Sr"": 4.0, ""Ca"": 1.0, ""P"": 3.0, ""O"": 12.0, ""F"": 1.0}",694.466,#FFFFFF,hexagonal,{36},291.0
Fluor-uvite,CaMg3(Al5Mg)(Si6O18)(BO3)3(OH)3F,"{""Ca"": 1.0, ""Mg"": 4.0, ""Al"": 5.0, ""Si"": 6.0, ""O"": 30.0, ""B"": 3.0, ""H"": 3.0, ""F"": 1.0}",975.14,#FFFFFF,hexagonal,"{23,34,40}",1281.0
Fluorwavellite,Al3(PO4)2(OH)2F·5H2O,"{""Al"": 3.0, ""P"": 2.0, ""O"": 15.0, ""H"": 12.0, ""F"": 1.0}",413.973,#FFFFFF,orthorhombic,{47},1998.0
Foggite,CaAl(PO4)(OH)2·H2O,"{""Ca"": 1.0, ""Al"": 1.0, ""P"": 1.0, ""O"": 7.0, ""H"": 4.0}",214.059,#FFFFFF,orthorhombic,{47},1998.0
Fogoite-(Y),Ca2Y2Na3Ti(Si2O7)2(OF)F2,"{""Ca"": 2.0, ""Y"": 2.0, ""Na"": 3.0, ""Ti"": 1.0, ""Si"": 4.0, ""O"": 15.0, ""F"": 3.0}",784.124,#FFFFFF,triclinic,{35},726.0
Fontanite,Ca(UO2)3(CO3)2O2·6H2O,"{""Ca"": 1.0, ""U"": 3.0, ""O"": 20.0, ""C"": 2.0, ""H"": 12.0}",1110.266,#FFFFFF,monoclinic,{47},1998.0
Formanite-(Y),YTaO4,"{""Y"": 1.0, ""Ta"": 1.0, ""O"": 4.0}",333.852,#FFFFFF,monoclinic,"{26,34}",814.0
Formicaite,Ca(CHOO)2,"{""Ca"": 1.0, ""C"": 2.0, ""H"": 2.0, ""O"": 4.0}",130.112,#FFFFFF,tetragonal,"{23,31}",754.0
Fornacite,CuPb2(CrO4)(AsO4)(OH),"{""Cu"": 1.0, ""Pb"": 2.0, ""Cr"": 1.0, ""O"": 9.0, ""As"": 1.0, ""H"": 1.0}",749.863,#FFFFFF,monoclinic,{47},1998.0
Forsterite,Mg2(SiO4),"{""Mg"": 2.0, ""Si"": 1.0, ""O"": 4.0}",140.691,#FFFFFF,orthorhombic,"{1,3,4,5,6,7,8,9,20,26,31,36,38,40,57}",2177.0
Foshagite,Ca4(SiO3)3(OH)2,"{""Ca"": 4.0, ""Si"": 3.0, ""O"": 11.0, ""H"": 2.0}",422.572,#FFFFFF,triclinic,"{31,51}",484.0
Fougerite,Fe2+4Fe3+2(OH)12(CO3)·3H2O,"{""Fe"": 6.0, ""O"": 18.0, ""H"": 18.0, ""C"": 1.0}",653.207,#556B2F,hexagonal,"{47,56}",2141.0
Francevillite,Ba(UO2)2(VO4)2·5H2O,"{""Ba"": 1.0, ""U"": 2.0, ""O"": 17.0, ""V"": 2.0, ""H"": 10.0}",997.337,#FFFFFF,orthorhombic,{47},1998.0
Francisite,Cu3Bi(Se4+O3)2O2Cl,"{""Cu"": 3.0, ""Bi"": 1.0, ""Se"": 2.0, ""O"": 8.0, ""Cl"": 1.0}",721.002,#FFFFFF,orthorhombic,"{21,47}",2077.0
Francoanellite,K3Al5(PO3OH)6(PO4)2·12H2O,"{""K"": 3.0, ""Al"": 5.0, ""P"": 8.0, ""O"": 44.0, ""H"": 30.0}",1234.192,#FFFFFF,hexagonal,"{47,52}",2070.0
Francoisite-(Ce),Ce(UO2)3O(OH)(PO4)2·6H2O,"{""Ce"": 1.0, ""U"": 3.0, ""O"": 22.0, ""H"": 13.0, ""P"": 2.0}",1281.24,#FFFFFF,monoclinic,{47},1998.0
Francoisite-(Nd),Nd(UO2)3O(OH)(PO4)2·6H2O,"{""Nd"": 1.0, ""U"": 3.0, ""O"": 22.0, ""H"": 13.0, ""P"": 2.0}",1285.36,#FFFFFF,monoclinic,{47},1998.0
Franconite,NaNb2O5(OH)·3H2O,"{""Na"": 1.0, ""Nb"": 2.0, ""O"": 9.0, ""H"": 7.0}",359.849,#FFFFFF,monoclinic,{35},726.0
Frankamenite,K3Na3Ca5Si12O30F3(OH)·H2O,"{""K"": 3.0, ""Na"": 3.0, ""Ca"": 5.0, ""Si"": 12.0, ""O"": 32.0, ""F"": 3.0, ""H"": 3.0}",1295.66,#FFFFFF,triclinic,{35},726.0
Frankdicksonite,BaF2,"{""Ba"": 1.0, ""F"": 2.0}",175.326,#FFFFFF,cubic,"{23,32,33}",1607.0
Frankhawthorneite,Cu2Te6+O4(OH)2,"{""Cu"": 2.0, ""Te"": 1.0, ""O"": 6.0, ""H"": 2.0}",352.702,#FFFFFF,monoclinic,{47},1998.0
Franksousaite,PbCu(Se6+O4)(OH)2,"{""Pb"": 1.0, ""Cu"": 1.0, ""Se"": 1.0, ""O"": 6.0, ""H"": 2.0}",447.727,#FFFFFF,monoclinic,{47},1998.0
Fransoletite,Ca3Be2(PO4)2(PO3OH)2·4H2O,"{""Ca"": 3.0, ""Be"": 2.0, ""P"": 4.0, ""O"": 20.0, ""H"": 10.0}",592.2144,#FFFFFF,monoclinic,"{34,47}",2562.0
Freboldite,CoSe,"{""Co"": 1.0, ""Se"": 1.0}",137.904,#4169E1,hexagonal,{33},797.0
Freedite,Cu1+Pb8(As3+O3)2O3Cl5,"{""Cu"": 1.0, ""Pb"": 8.0, ""As"": 2.0, ""O"": 9.0, ""Cl"": 5.0}",2192.231,#FFFFFF,monoclinic,{47},1998.0
Freieslebenite,AgPbSbS3,"{""Ag"": 1.0, ""Pb"": 1.0, ""Sb"": 1.0, ""S"": 3.0}",533.01,#708090,monoclinic,"{14,33}",858.0
Freitalite,C14H10,"{""C"": 14.0, ""H"": 10.0}",178.234,#FFFFFF,monoclinic,{54},234.0
Fresnoite,Ba2TiO(Si2O7),"{""Ba"": 2.0, ""Ti"": 1.0, ""O"": 8.0, ""Si"": 2.0}",506.689,#FFFFFF,tetragonal,{32},412.0
Freudenbergite,Na(Ti4+3Fe3+)O8,"{""Na"": 1.0, ""Ti"": 3.0, ""Fe"": 1.0, ""O"": 8.0}",350.428,#556B2F,monoclinic,"{7,35,41}",865.0
Friedrichite,Cu5Pb5Bi7S18,"{""Cu"": 5.0, ""Pb"": 5.0, ""Bi"": 7.0, ""S"": 18.0}",3393.67,#708090,orthorhombic,{33},797.0
Friisite,Pb8Al3Si8O27Cl3,"{""Pb"": 8.0, ""Al"": 3.0, ""Si"": 8.0, ""O"": 27.0, ""Cl"": 3.0}",2501.549,#FFFFFF,hexagonal,{},1.0
Frohbergite,FeTe2,"{""Fe"": 1.0, ""Te"": 2.0}",311.045,#8B4513,orthorhombic,{33},797.0
Frolovite,Ca[B(OH)4]2,"{""Ca"": 1.0, ""B"": 2.0, ""O"": 8.0, ""H"": 8.0}",197.754,#FFFFFF,triclinic,{23},398.0
Froodite,PdBi2,"{""Pd"": 1.0, ""Bi"": 2.0}",524.38,#D2B48C,monoclinic,"{33,37}",932.0
Fuchunite,Ba(C2H3O3)2(C2H4O3)2,"{""Ba"": 1.0, ""C"": 8.0, ""H"": 14.0, ""O"": 12.0}",439.518,#FFFFFF,monoclinic,{},1.0
Fuenzalidaite,K3Na5Mg5(IO3)6(SO4)6·6H2O,"{""K"": 3.0, ""Na"": 5.0, ""Mg"": 5.0, ""I"": 6.0, ""O"": 48.0, ""S"": 6.0, ""H"": 12.0}",2087.577,#FFFFFF,hexagonal,"{25,47}",2208.0
Fuettererite,Pb3Cu2+6Te6+O6(OH)7Cl5,"{""Pb"": 3.0, ""Cu"": 6.0, ""Te"": 1.0, ""O"": 13.0, ""H"": 7.0, ""Cl"": 5.0}",1522.769,#FFFFFF,hexagonal,{47},1998.0