name,formula,elements,density,color,crystal,pm_ids,gacha_weight
Magnanelliite,K3Fe3+2(SO4)4(OH)(H2O)2,"{""K"": 3.0, ""Fe"": 2.0, ""S"": 4.0, ""O"": 19.0, ""H"": 5.0}",666.245,#556B2F,monoclinic,{47},3.003e-09
Magneliite,Ti3+2Ti4+2O7,"{""Ti"": 4.0, ""O"": 7.0}",303.461,#FFFFFF,triclinic,{3},6.25e-08
Magnesioalterite,Mg2Fe3+4(SO4)4(C2O4)2(OH)4·17H2O,"{""Mg"": 2.0, ""Fe"": 4.0, ""S"": 4.0, ""O"": 45.0, ""C"": 4.0, ""H"": 38.0}",1206.533,#556B2F,monoclinic,{53},1.709e-09
Magnesio-arfvedsonite,NaNa2(Mg4Fe3+)Si8O22(OH)2,"{""Na"": 3.0, ""Mg"": 4.0, ""Fe"": 1.0, ""Si"": 8.0, ""O"": 24.0, ""H"": 2.0}",832.707,#556B2F,monoclinic,"{17,35,36}",3.17482e-07
Magnesioaubertite,MgAl(SO4)2Cl·14H2O,"{""Mg"": 1.0, ""Al"": 1.0, ""S"": 2.0, ""O"": 22.0, ""Cl"": 1.0, ""H"": 28.0}",531.059,#FFFFFF,triclinic,{45},4.72e-10
Magnesiobeltrandoite-2N3S,(Mg6Al2)(Al18Fe3+2)O38(OH)2,"{""Mg"": 6.0, ""Al"": 20.0, ""Fe"": 2.0, ""O"": 40.0, ""H"": 2.0}",1439.136,#556B2F,hexagonal,{26},5.2e-08
Magnesiobermanite,MgMn3+2(PO4)2(OH)2·4H2O,"{""Mg"": 1.0, ""Mn"": 2.0, ""P"": 2.0, ""O"": 14.0, ""H"": 10.0}",430.195,#FFFFFF,monoclinic,"{34,47}",8.394e-09
Magnesiocarpholite,MgAl2Si2O6(OH)4,"{""Mg"": 1.0, ""Al"": 2.0, ""Si"": 2.0, ""O"": 10.0, ""H"": 4.0}",298.461,#FFFFFF,orthorhombic,{40},1.2225705e-05
Magnesiochloritoid,MgAl2O(SiO4)(OH)2,"{""Mg"": 1.0, ""Al"": 2.0, ""O"": 7.0, ""Si"": 1.0, ""H"": 2.0}",220.363,#FFFFFF,monoclinic,"{39,40}",1.241142e-05
Magnesiochromite,MgCr2O4,"{""Mg"": 1.0, ""Cr"": 2.0, ""O"": 4.0}",192.293,#228B22,orthorhombic,"{5,6,7,8,26,37,38,51}",6.972869e-06
Magnesiocopiapite,MgFe3+4(SO4)6(OH)2·20H2O,"{""Mg"": 1.0, ""Fe"": 4.0, ""S"": 6.0, ""O"": 46.0, ""H"": 42.0}",1218.335,#556B2F,triclinic,"{45,47,50,54}",5.062e-09
Magnesiocoulsonite,MgV2O4,"{""Mg"": 1.0, ""V"": 2.0, ""O"": 4.0}",190.185,#FFFFFF,cubic,{40},9.404389e-06
Magnesiodumortierite,MgAl6BSi3O17(OH),"{""Mg"": 1.0, ""Al"": 6.0, ""B"": 1.0, ""Si"": 3.0, ""O"": 18.0, ""H"": 1.0}",570.252,#FFFFFF,orthorhombic,{34},1.773e-08
Magnesioferrite,MgFe3+2O4,"{""Mg"": 1.0, ""Fe"": 2.0, ""O"": 4.0}",199.991,#8B4513,cubic,"{31,36,45,50,51,54}",3.16588e-07
Magnesiofluckite,CaMg(AsO3OH)2(H2O)2,"{""Ca"": 1.0, ""Mg"": 1.0, ""As"": 2.0, ""O"": 10.0, ""H"": 6.0}",380.265,#FFFFFF,triclinic,{47},1.5015e-07
Magnesio-fluoro-arfvedsonite,NaNa2(Mg4Fe3+)Si8O22F2,"{""Na"": 3.0, ""Mg"": 4.0, ""Fe"": 1.0, ""Si"": 8.0, ""O"": 22.0, ""F"": 2.0}",836.689,#556B2F,monoclinic,"{17,35,36}",1.2211e-08
Magnesio-fluoro-hastingsite,NaCa2(Mg4Fe3+)(Si6Al2)O22F2,"{""Na"": 1.0, ""Ca"": 2.0, ""Mg"": 4.0, ""Fe"": 1.0, ""Si"": 6.0, ""Al"": 2.0, ""O"": 22.0, ""F"": 2.0}",868.659,#556B2F,monoclinic,"{19,20,26,31,34}",1.763654e-06
Magnesio-hastingsite,NaCa2(Mg4Fe3+)(Si6Al2)O22(OH)2,"{""Na"": 1.0, ""Ca"": 2.0, ""Mg"": 4.0, ""Fe"": 1.0, ""Si"": 6.0, ""Al"": 2.0, ""O"": 24.0, ""H"": 2.0}",864.677,#556B2F,monoclinic,"{8,10,16,22,26,35,36}",8.83243e-06
Magnesiohatertite,NaNaCa(MgFe3+)(AsO4)3,"{""Na"": 2.0, ""Ca"": 1.0, ""Mg"": 1.0, ""Fe"": 1.0, ""As"": 3.0, ""O"": 12.0}",582.962,#556B2F,monoclinic,{45},2.3585e-08
Magnesiohogbomite-6N12S,Mg5Al11TiO23(OH),"{""Mg"": 5.0, ""Al"": 11.0, ""Ti"": 1.0, ""O"": 24.0, ""H"": 1.0}",851.178,#FFFFFF,hexagonal,{36},1.0309e-08
Magnesiohulsite,Mg2Fe3+O2(BO3),"{""Mg"": 2.0, ""Fe"": 1.0, ""O"": 5.0, ""B"": 1.0}",195.26,#556B2F,monoclinic,{23},1.758794e-06
Magnesiokoritnigite,Mg(AsO3OH)·H2O,"{""Mg"": 1.0, ""As"": 1.0, ""O"": 5.0, ""H"": 3.0}",182.246,#FFFFFF,triclinic,{47},1.5015e-07
Magnesioleydetite,Mg(UO2)(SO4)2·11H2O,"{""Mg"": 1.0, ""U"": 1.0, ""O"": 21.0, ""S"": 2.0, ""H"": 22.0}",684.61,#FFFFFF,monoclinic,{47},3.003e-09
Magnesio-lucchesiite,CaMg3Al6(Si6O18)(BO3)3(OH)3O,"{""Ca"": 1.0, ""Mg"": 3.0, ""Al"": 6.0, ""Si"": 6.0, ""O"": 31.0, ""B"": 3.0, ""H"": 3.0}",974.818,#FFFFFF,hexagonal,{19},3.4965035e-05
Magnesiopascoite,Ca2MgV5+10O28·16H2O,"{""Ca"": 2.0, ""Mg"": 1.0, ""V"": 10.0, ""O"": 44.0, ""H"": 32.0}",1350.093,#FFFFFF,monoclinic,"{47,55}",1.88029e-07
Magnesioqingheiite,Na2Mg(MgAl)(PO4)3,"{""Na"": 2.0, ""Mg"": 2.0, ""Al"": 1.0, ""P"": 3.0, ""O"": 12.0}",406.482,#FFFFFF,monoclinic,{},1e-07
Magnesiotaaffeite-2N2S,Mg3BeAl8O16,"{""Mg"": 3.0, ""Be"": 1.0, ""Al"": 8.0, ""O"": 16.0}",553.7672,#FFFFFF,hexagonal,"{34,40}",9.422119e-06
Magnesiotaaffeite-6N3S,Mg2BeAl6O12,"{""Mg"": 2.0, ""Be"": 1.0, ""Al"": 6.0, ""O"": 12.0}",411.5022,#FFFFFF,hexagonal,"{34,40}",9.422119e-06
Magnesiovesuvianite,Ca19Mg(Al11Mg)Si18O69(OH)9,"{""Ca"": 19.0, ""Mg"": 2.0, ""Al"": 11.0, ""Si"": 18.0, ""O"": 78.0, ""H"": 9.0}",2869.418,#FFFFFF,tetragonal,"{7,13}",2.99721e-07
Magnesiovoltaite,K2Mg5Fe3+3Al(SO4)12·18H2O,"{""K"": 2.0, ""Mg"": 5.0, ""Fe"": 3.0, ""Al"": 1.0, ""S"": 12.0, ""O"": 66.0, ""H"": 36.0}",1871.18,#556B2F,cubic,"{45,47}",3.475e-09
Magnesite,Mg(CO3),"{""Mg"": 1.0, ""C"": 1.0, ""O"": 3.0}",84.313,#FFFFFF,hexagonal,"{13,23,25,26,36,38,39,40,44,47,49}",1.2858981e-05
Magnetite,Fe2+Fe3+2O4,"{""Fe"": 3.0, ""O"": 4.0}",231.531,#8B4513,cubic,"{1,4,5,6,8,15,19,20,21,23,26,36,37,38,40,44,45,47,49}",0.00010548294
Magnetoplumbite,PbFe3+12O19,"{""Pb"": 1.0, ""Fe"": 12.0, ""O"": 19.0}",1181.321,#8B4513,hexagonal,{32},2.4272e-08
Magnioursilite,Mg4(UO2)4(Si2O5)5(OH)6·20H2O,"{""Mg"": 4.0, ""U"": 4.0, ""O"": 59.0, ""Si"": 10.0, ""H"": 46.0}",2320.499,#FFFFFF,orthorhombic,{47},1.5015e-07
Magnolite,Hg1+2(Te4+O3),"{""Hg"": 2.0, ""Te"": 1.0, ""O"": 3.0}",576.777,#FFFFFF,orthorhombic,{47},1.5015e-07
Magselite,[Mg(H2O)6](Se4+O3),"{""Mg"": 1.0, ""H"": 12.0, ""O"": 9.0, ""Se"": 1.0}",259.363,#FFFFFF,hexagonal,{},1e-06
Maikainite,Cu10Fe3MoGe3S16,"{""Cu"": 10.0, ""Fe"": 3.0, ""Mo"": 1.0, ""Ge"": 3.0, ""S"": 16.0}",1629.795,#DAA520,cubic,{33},2.51e-10
Majakite,PdNiAs,"{""Pd"": 1.0, ""Ni"": 1.0, ""As"": 1.0}",240.035,#7FFF00,hexagonal,"{33,37}",8.6621e-08
Majindeite,Mg2Mo3O8,"{""Mg"": 2.0, ""Mo"": 3.0, ""O"": 8.0}",464.452,#FFFFFF,hexagonal,{6},4.878e-08
Majorite,Mg3(MgSi)(SiO4)3,"{""Mg"": 4.0, ""Si"": 4.0, ""O"": 12.0}",401.548,#FFFFFF,cubic,"{6,26,39}",3.01129e-07
Majzlanite,K2Na(ZnNa)Ca(SO4)4,"{""K"": 2.0, ""Na"": 2.0, ""Zn"": 1.0, ""Ca"": 1.0, ""S"": 4.0, ""O"": 16.0}",613.858,#FFFFFF,monoclinic,{45},4.72e-10
Makarochkinite,Ca4[Fe2+8Fe3+2Ti2]O4[Si8Be2Al2O36],"{""Ca"": 4.0, ""Fe"": 10.0, ""Ti"": 2.0, ""O"": 40.0, ""Si"": 8.0, ""Be"": 2.0, ""Al"": 2.0}",1751.1244,#556B2F,triclinic,{40},2.821317e-06
Makatite,Na2Si4O8(OH)2·4H2O,"{""Na"": 2.0, ""Si"": 4.0, ""O"": 14.0, ""H"": 10.0}",392.386,#FFFFFF,monoclinic,"{25,35}",1.53483e-07
Makinenite,NiSe,"{""Ni"": 1.0, ""Se"": 1.0}",137.664,#7FFF00,hexagonal,{33},1.2547e-08
Makotoite,Ag12(Cu3Au)S8,"{""Ag"": 12.0, ""Cu"": 3.0, ""Au"": 1.0, ""S"": 8.0}",1938.528,#A9A9A9,hexagonal,{33},2.51e-10
Malachite,Cu2(CO3)(OH)2,"{""Cu"": 2.0, ""C"": 1.0, ""O"": 5.0, ""H"": 2.0}",221.114,#FFFFFF,monoclinic,"{47,53}",2.3562e-07
Malanite,Cu1+(Ir3+Pt4+)S4,"{""Cu"": 1.0, ""Ir"": 1.0, ""Pt"": 1.0, ""S"": 4.0}",579.086,#A9A9A9,cubic,"{12,26,33,37}",4.083e-09
Malayaite,CaSnO(SiO4),"{""Ca"": 1.0, ""Sn"": 1.0, ""O"": 5.0, ""Si"": 1.0}",266.868,#FFFFFF,monoclinic,{31},2.809e-08
Maldonite,Au2Bi,"{""Au"": 2.0, ""Bi"": 1.0}",602.92,#FFD700,cubic,{33},1.2547e-08
Maleevite,BaB2Si2O8,"{""Ba"": 1.0, ""B"": 2.0, ""Si"": 2.0, ""O"": 8.0}",343.112,#FFFFFF,orthorhombic,{35},1.3774e-08
Maletoyvayamite,Au3Se4Te6,"{""Au"": 3.0, ""Se"": 4.0, ""Te"": 6.0}",1672.394,#FFD700,triclinic,{33},1.2547e-08
Malhmoodite,Fe2+Zr(PO4)2·4H2O,"{""Fe"": 1.0, ""Zr"": 1.0, ""P"": 2.0, ""O"": 12.0, ""H"": 8.0}",409.069,#556B2F,triclinic,"{22,32}",6.476e-09
Malinkoite,NaBSiO4,"{""Na"": 1.0, ""B"": 1.0, ""Si"": 1.0, ""O"": 4.0}",125.881,#FFFFFF,hexagonal,{35},1.3774e-08
Malladrite,Na2SiF6,"{""Na"": 2.0, ""Si"": 1.0, ""F"": 6.0}",188.053,#FFFFFF,hexagonal,"{45,50,54}",5.147e-09
Mallardite,Mn(SO4)·7H2O,"{""Mn"": 1.0, ""S"": 1.0, ""O"": 11.0, ""H"": 14.0}",277.099,#FFFFFF,monoclinic,"{47,55}",3.761e-09
Mallestigite,Pb3Sb(SO4)(AsO4)(OH)6·3H2O,"{""Pb"": 3.0, ""Sb"": 1.0, ""S"": 1.0, ""O"": 17.0, ""As"": 1.0, ""H"": 12.0}",1134.421,#FFFFFF,hexagonal,"{47,56}",4.402e-09
Malyshevite,PdCuBiS3,"{""Pd"": 1.0, ""Cu"": 1.0, ""Bi"": 1.0, ""S"": 3.0}",475.126,#A9A9A9,orthorhombic,{33},2.51e-10
Mammothite,Pb6Cu4AlSb5+O2(SO4)2Cl4(OH)16,"{""Pb"": 6.0, ""Cu"": 4.0, ""Al"": 1.0, ""Sb"": 1.0, ""O"": 26.0, ""S"": 2.0, ""Cl"": 4.0, ""H"": 16.0}",2284.148,#FFFFFF,monoclinic,"{47,56}",4.402e-09
Mampsisite,Ca4Al2(OH)12(CO3) · 5H2O,"{""Ca"": 4.0, ""Al"": 2.0, ""O"": 20.0, ""H"": 22.0, ""C"": 1.0}",568.443,#FFFFFF,triclinic,{},1e-06
Manaksite,KNaMn2+Si4O10,"{""K"": 1.0, ""Na"": 1.0, ""Mn"": 1.0, ""Si"": 4.0, ""O"": 10.0}",389.356,#FFFFFF,triclinic,{35},6.89e-10
Manandonite,Li2Al4(Si2AlB)O10(OH)8,"{""Li"": 2.0, ""Al"": 5.0, ""Si"": 2.0, ""B"": 1.0, ""O"": 18.0, ""H"": 8.0}",511.816,#FFFFFF,triclinic,{34},1.773e-08
Mandarinoite,Fe3+2(Se4+O3)3·6H2O,"{""Fe"": 2.0, ""Se"": 3.0, ""O"": 15.0, ""H"": 12.0}",600.684,#556B2F,monoclinic,{47},1.5015e-07
Manganarsite,Mn2+3As3+2O4(OH)4,"{""Mn"": 3.0, ""As"": 2.0, ""O"": 8.0, ""H"": 4.0}",446.682,#FFFFFF,hexagonal,{47},7.508e-09
Manganbabingtonite,Ca2Mn2+Fe3+Si5O14(OH),"{""Ca"": 2.0, ""Mn"": 1.0, ""Fe"": 1.0, ""Si"": 5.0, ""O"": 15.0, ""H"": 1.0}",572.357,#556B2F,triclinic,"{32,34}",2.1e-09
Manganberzeliite,(NaCa2)Mn2+2(AsO4)3,"{""Na"": 1.0, ""Ca"": 2.0, ""Mn"": 2.0, ""As"": 3.0, ""O"": 12.0}",629.776,#FFFFFF,cubic,{32},1.214e-09
Manganflurlite,ZnMn2+3Fe3+(PO4)3(OH)2(H2O)7·2H2O,"{""Zn"": 1.0, ""Mn"": 3.0, ""Fe"": 1.0, ""P"": 3.0, ""O"": 23.0, ""H"": 20.0}",767.098,#556B2F,monoclinic,{34},8.87e-10
Mangangordonite,Mn2+Al2(PO4)2(OH)2·8H2O,"{""Mn"": 1.0, ""Al"": 2.0, ""P"": 2.0, ""O"": 18.0, ""H"": 18.0}",476.976,#FFFFFF,triclinic,{47},7.508e-09
Manganhumite,Mn2+7(SiO4)3(OH)2,"{""Mn"": 7.0, ""Si"": 3.0, ""O"": 14.0, ""H"": 2.0}",694.823,#FFFFFF,orthorhombic,{32},1.214e-09
Manganiakasakaite-(La),CaLa(Mn3+AlMn2+)(Si2O7)(SiO4)O(OH),"{""Ca"": 1.0, ""La"": 1.0, ""Mn"": 2.0, ""Al"": 1.0, ""Si"": 3.0, ""O"": 13.0, ""H"": 1.0}",609.096,#FFFFFF,monoclinic,{32},1.214e-09
Manganiandrosite-(Ce),MnCe(Mn3+AlMn2+)[Si2O7][SiO4]O(OH),"{""Mn"": 3.0, ""Ce"": 1.0, ""Al"": 1.0, ""Si"": 3.0, ""O"": 13.0, ""H"": 1.0}",625.166,#FFFFFF,monoclinic,{32},1.214e-09
Manganiandrosite-(La),MnLa(Mn3+AlMn2+)[Si2O7][SiO4]O(OH),"{""Mn"": 3.0, ""La"": 1.0, ""Al"": 1.0, ""Si"": 3.0, ""O"": 13.0, ""H"": 1.0}",623.956,#FFFFFF,monoclinic,{32},1.214e-09
Manganiceladonite,KMgMn3+Si4O10(OH)2,"{""K"": 1.0, ""Mg"": 1.0, ""Mn"": 1.0, ""Si"": 4.0, ""O"": 12.0, ""H"": 2.0}",424.685,#FFFFFF,monoclinic,{32},1.214e-09
Mangani-dellaventuraite,NaNa2(MgMn3+2Ti4+Li)Si8O22O2,"{""Na"": 3.0, ""Mg"": 1.0, ""Mn"": 2.0, ""Ti"": 1.0, ""Li"": 1.0, ""Si"": 8.0, ""O"": 24.0}",866.614,#FFFFFF,monoclinic,{32},1.214e-09
Mangani-eckermannite,NaNa2(Mg4Mn3+)Si8O22(OH)2,"{""Na"": 3.0, ""Mg"": 4.0, ""Mn"": 1.0, ""Si"": 8.0, ""O"": 24.0, ""H"": 2.0}",831.8,#FFFFFF,monoclinic,{},5e-08
Manganilvaite,CaFe2+Fe3+Mn2+(Si2O7)O(OH),"{""Ca"": 1.0, ""Fe"": 2.0, ""Mn"": 1.0, ""Si"": 2.0, ""O"": 9.0, ""H"": 1.0}",407.875,#556B2F,monoclinic,{31},1.404e-09
Mangani-obertiite,NaNa2(Mg3Mn3+Ti4+)Si8O22O2,"{""Na"": 3.0, ""Mg"": 3.0, ""Mn"": 1.0, ""Ti"": 1.0, ""Si"": 8.0, ""O"": 24.0}",853.346,#FFFFFF,monoclinic,{10},4.673e-09
Mangani-pargasite,NaCa2(Mg4Mn3+)(Si6Al2)O22(OH)2,"{""Na"": 1.0, ""Ca"": 2.0, ""Mg"": 4.0, ""Mn"": 1.0, ""Si"": 6.0, ""Al"": 2.0, ""O"": 24.0, ""H"": 2.0}",863.77,#FFFFFF,monoclinic,{31},1.404e-09
Manganite,Mn3+O(OH),"{""Mn"": 1.0, ""O"": 2.0, ""H"": 1.0}",87.944,#FFB6C1,orthorhombic,"{14,22,24,47,48}",3.1528e-08
Manganlotharmeyerite,CaMn3+2(AsO4)2(OH)2,"{""Ca"": 1.0, ""Mn"": 2.0, ""As"": 2.0, ""O"": 10.0, ""H"": 2.0}",461.804,#FFFFFF,monoclinic,"{32,47}",8.721e-09
Manganoarrojadite-(KNa),KNa5MnFe13Al(PO4)11(PO3OH)(OH)2,"{""K"": 1.0, ""Na"": 5.0, ""Mn"": 1.0, ""Fe"": 13.0, ""Al"": 1.0, ""P"": 12.0, ""O"": 50.0, ""H"": 3.0}",2136.615,#556B2F,monoclinic,{34},8.87e-10
Manganobadalovite,NaNaMn(MgFe3+)(AsO4)3,"{""Na"": 2.0, ""Mn"": 1.0, ""Mg"": 1.0, ""Fe"": 1.0, ""As"": 3.0, ""O"": 12.0}",597.822,#556B2F,monoclinic,{45},1.179e-09
Manganoblodite,Na2Mn(SO4)2·4H2O,"{""Na"": 2.0, ""Mn"": 1.0, ""S"": 2.0, ""O"": 12.0, ""H"": 8.0}",365.09,#FFFFFF,monoclinic,{47},3.003e-09
Manganochromite,Mn2+Cr2O4,"{""Mn"": 1.0, ""Cr"": 2.0, ""O"": 4.0}",222.926,#FFB6C1,cubic,{40},4.70219e-07
Mangano-ferri-eckermannite,NaNa2(Mn2+4Fe3+)Si8O22(OH)2,"{""Na"": 3.0, ""Mn"": 4.0, ""Fe"": 1.0, ""Si"": 8.0, ""O"": 24.0, ""H"": 2.0}",955.239,#556B2F,monoclinic,{32},1.214e-09
Manganohatertite,NaNaCa(MnFe3+)(AsO4)3,"{""Na"": 2.0, ""Ca"": 1.0, ""Mn"": 1.0, ""Fe"": 1.0, ""As"": 3.0, ""O"": 12.0}",613.595,#556B2F,monoclinic,{},5e-08
Manganohornesite,Mn2+3(AsO4)2·8H2O,"{""Mn"": 3.0, ""As"": 2.0, ""O"": 16.0, ""H"": 16.0}",586.77,#FFFFFF,monoclinic,"{31,32}",2.618e-09
Manganokukisvumite,Na6MnTi4Si8O28·4H2O,"{""Na"": 6.0, ""Mn"": 1.0, ""Ti"": 4.0, ""Si"": 8.0, ""O"": 32.0, ""H"": 8.0}",1129.058,#FFFFFF,orthorhombic,{35},6.89e-10
Manganolangbeinite,K2Mn2+2(SO4)3,"{""K"": 2.0, ""Mn"": 2.0, ""S"": 3.0, ""O"": 12.0}",476.24,#FFFFFF,cubic,{45},4.72e-10
Mangano-mangani-ungarettiite,NaNa2(Mn2+2Mn3+3)Si8O22O2,"{""Na"": 3.0, ""Mn"": 5.0, ""Si"": 8.0, ""O"": 24.0}",952.316,#FFFFFF,monoclinic,"{31,32}",2.618e-09
Manganonaujakasite,Na6Mn2+Al4Si8O26,"{""Na"": 6.0, ""Mn"": 1.0, ""Al"": 4.0, ""Si"": 8.0, ""O"": 26.0}",941.46,#FFFFFF,monoclinic,{35},6.89e-10
Manganoneptunite,KNa2LiMn2+2Ti2Si8O24,"{""K"": 1.0, ""Na"": 2.0, ""Li"": 1.0, ""Mn"": 2.0, ""Ti"": 2.0, ""Si"": 8.0, ""O"": 24.0}",906.284,#FFFFFF,monoclinic,{35},6.89e-10
Manganonewberyite,Mn(PO3OH)(H2O)3,"{""Mn"": 1.0, ""P"": 1.0, ""O"": 7.0, ""H"": 7.0}",204.961,#FFFFFF,orthorhombic,{},5e-08
Manganonordite-(Ce),Na3SrCeMn2+Si6O17,"{""Na"": 3.0, ""Sr"": 1.0, ""Ce"": 1.0, ""Mn"": 1.0, ""Si"": 6.0, ""O"": 17.0}",792.141,#FFFFFF,orthorhombic,{35},6.89e-10
Manganoquadratite,AgMnAsS3,"{""Ag"": 1.0, ""Mn"": 1.0, ""As"": 1.0, ""S"": 3.0}",333.91,#FFD700,tetragonal,{33},2.51e-10
Manganoschafarzikite,MnSb2O4,"{""Mn"": 1.0, ""Sb"": 2.0, ""O"": 4.0}",362.454,#FFB6C1,tetragonal,{},5e-08
Manganosegelerite,Mn2+2Fe3+(PO4)2(OH)·4H2O,"{""Mn"": 2.0, ""Fe"": 1.0, ""P"": 2.0, ""O"": 13.0, ""H"": 9.0}",444.728,#556B2F,orthorhombic,{34},8.87e-10
Manganosite,MnO,"{""Mn"": 1.0, ""O"": 1.0}",70.937,#FFB6C1,cubic,"{32,42,47}",4.2054e-08
Manganostibite,Mn2+7Sb5+As5+O12,"{""Mn"": 7.0, ""Sb"": 1.0, ""As"": 1.0, ""O"": 12.0}",773.236,#FFFFFF,orthorhombic,"{32,46}",1.0829e-08
Manganotychite,Na6Mn2+2(CO3)4(SO4),"{""Na"": 6.0, ""Mn"": 2.0, ""C"": 4.0, ""O"": 16.0, ""S"": 1.0}",583.904,#FFFFFF,cubic,{35},2.75e-10
Manganrockbridgeite,Mn2+2Fe3+3(PO4)3(OH)4(H2O),"{""Mn"": 2.0, ""Fe"": 3.0, ""P"": 3.0, ""O"": 17.0, ""H"": 6.0}",648.364,#556B2F,monoclinic,{},5e-08
Manganvesuvianite,Ca19Mn3+Al10Mg2(SiO4)10(Si2O7)4O(OH)9,"{""Ca"": 19.0, ""Mn"": 1.0, ""Al"": 10.0, ""Mg"": 2.0, ""Si"": 18.0, ""O"": 78.0, ""H"": 9.0}",2897.374,#FFFFFF,tetragonal,"{13,32}",8.676e-09
Mangazeite,Al2(SO4)(OH)4·3H2O,"{""Al"": 2.0, ""S"": 1.0, ""O"": 11.0, ""H"": 10.0}",272.093,#FFFFFF,triclinic,{47},3.003e-09
Manitobaite,Na16Mn2+25Al8(PO4)30,"{""Na"": 16.0, ""Mn"": 25.0, ""Al"": 8.0, ""P"": 30.0, ""O"": 120.0}",4806.246,#FFFFFF,monoclinic,{34},8.87e-10
Manjiroite,Na(Mn4+7Mn3+)O16,"{""Na"": 1.0, ""Mn"": 8.0, ""O"": 16.0}",718.478,#FFB6C1,tetragonal,{47},7.508e-09
Mannardite,Ba(Ti6V3+2)O16,"{""Ba"": 1.0, ""Ti"": 6.0, ""V"": 2.0, ""O"": 16.0}",782.4,#FFFFFF,tetragonal,"{7,23,32}",5.5931e-07
Mansfieldite,Al(AsO4)·2H2O,"{""Al"": 1.0, ""As"": 1.0, ""O"": 6.0, ""H"": 4.0}",201.93,#FFFFFF,orthorhombic,"{22,46}",2.32794e-07
Mantienneite,(H2O)2Mg2(Al2Ti)(PO4)4(OH)2(H2O)10·4H2O,"{""H"": 34.0, ""O"": 34.0, ""Mg"": 2.0, ""Al"": 2.0, ""Ti"": 1.0, ""P"": 4.0}",852.575,#FFFFFF,orthorhombic,"{34,47}",1.6788e-08
Manuelarossiite,PbCaAlF7,"{""Pb"": 1.0, ""Ca"": 1.0, ""Al"": 1.0, ""F"": 7.0}",407.246,#FFFFFF,monoclinic,{},5e-08
Maohokite,MgFe2O4,"{""Mg"": 1.0, ""Fe"": 2.0, ""O"": 4.0}",199.991,#8B4513,orthorhombic,{30},8.125e-07
Mapimite,Zn2Fe3+3(AsO4)3(OH)4·10H2O,"{""Zn"": 2.0, ""Fe"": 3.0, ""As"": 3.0, ""O"": 26.0, ""H"": 24.0}",963.227,#556B2F,monoclinic,{47},1.5015e-07
Marathonite,Pd25Ge9,"{""Pd"": 25.0, ""Ge"": 9.0}",3314.17,#FFFFFF,hexagonal,{37},7.4074e-08
Marcasite,FeS2,"{""Fe"": 1.0, ""S"": 2.0}",119.965,#DAA520,orthorhombic,"{11,15,49,50,53,54,55}",1.8457e-08
Marchettiite,C5H7N5O3,"{""C"": 5.0, ""H"": 7.0, ""N"": 5.0, ""O"": 3.0}",185.143,#FFFFFF,triclinic,{52},1.38889e-07
Marcobaldiite,Pb12(Sb3As2Bi)Σ6S21,"{""Pb"": 12.0, ""Sb"": 18.0, ""As"": 12.0, ""Bi"": 6.0, ""S"": 21.0}",7504.284,#708090,triclinic,{12},1.55e-09
Marecottite,Mg3O6(UO2)8(SO4)4(OH)2·28H2O,"{""Mg"": 3.0, ""O"": 68.0, ""U"": 8.0, ""S"": 4.0, ""H"": 58.0}",3251.791,#FFFFFF,triclinic,"{47,55}",3.761e-09
Margaritasite,Cs2(UO2)2(VO4)2·H2O,"{""Cs"": 2.0, ""U"": 2.0, ""O"": 13.0, ""V"": 2.0, ""H"": 2.0}",1053.767,#FFFFFF,monoclinic,{16},1.20482e-07
Margarite,CaAl2Si2Al2O10(OH)2,"{""Ca"": 1.0, ""Al"": 4.0, ""Si"": 2.0, ""O"": 12.0, ""H"": 2.0}",398.18,#FFFFFF,monoclinic,"{6,23,40}",1.4575552e-05
Margarosanite,Ca2PbSi3O9,"{""Ca"": 2.0, ""Pb"": 1.0, ""Si"": 3.0, ""O"": 9.0}",515.602,#FFFFFF,triclinic,{32},2.4272e-08
Mariakrite,[Ca4Al2(OH)12(H2O)4][Fe2S4],"{""Ca"": 4.0, ""Al"": 2.0, ""O"": 16.0, ""H"": 20.0, ""Fe"": 2.0, ""S"": 4.0}",730.35,#556B2F,triclinic,{22},8.1e-10
Marialite,Na4Al3Si9O24Cl,"{""Na"": 4.0, ""Al"": 3.0, ""Si"": 9.0, ""O"": 24.0, ""Cl"": 1.0}",845.097,#FFFFFF,tetragonal,"{6,9,10,16,23,25,31,34,40}",1.1598083e-05
Maricite,NaFe2+(PO4),"{""Na"": 1.0, ""Fe"": 1.0, ""P"": 1.0, ""O"": 4.0}",173.805,#556B2F,orthorhombic,"{5,21}",2.3297e-08
Mariinskite,BeCr2O4,"{""Be"": 1.0, ""Cr"": 2.0, ""O"": 4.0}",177.0002,#228B22,orthorhombic,{7},8.1301e-08
Marinaite,Cu2Fe3+O2(BO3),"{""Cu"": 2.0, ""Fe"": 1.0, ""O"": 5.0, ""B"": 1.0}",273.742,#556B2F,monoclinic,{45},2.3585e-08
Marinellite,Na42Ca6Al36Si36O144(SO4)8Cl2·6H2O,"{""Na"": 42.0, ""Ca"": 6.0, ""Al"": 36.0, ""Si"": 36.0, ""O"": 182.0, ""S"": 8.0, ""Cl"": 2.0, ""H"": 12.0}",6439.754,#FFFFFF,hexagonal,"{31,35}",8.37e-10
Marioantofilliite,[Cu4Al2(OH)12](CO3)·3H2O,"{""Cu"": 4.0, ""Al"": 2.0, ""O"": 18.0, ""H"": 18.0, ""C"": 1.0}",626.285,#FFFFFF,monoclinic,{},1e-06
Markascherite,Cu3(MoO4)(OH)4,"{""Cu"": 3.0, ""Mo"": 1.0, ""O"": 8.0, ""H"": 4.0}",418.612,#FFFFFF,monoclinic,{47},1.5015e-07
Markcooperite,Pb2(UO2)TeO6,"{""Pb"": 2.0, ""U"": 1.0, ""O"": 8.0, ""Te"": 1.0}",908.022,#FFFFFF,monoclinic,{47},1.5015e-07
Markeyite,Ca9(UO2)4(CO3)13·28H2O,"{""Ca"": 9.0, ""U"": 4.0, ""O"": 75.0, ""C"": 13.0, ""H"": 56.0}",2725.338,#FFFFFF,orthorhombic,{47},1.5015e-07
Markhininite,TlBi(SO4)2,"{""Tl"": 1.0, ""Bi"": 1.0, ""S"": 2.0, ""O"": 8.0}",605.472,#FFFFFF,triclinic,{45},4.72e-10
Marklite,Cu5(CO3)2(OH)6·6H2O,"{""Cu"": 5.0, ""C"": 2.0, ""O"": 18.0, ""H"": 18.0}",647.878,#FFFFFF,monoclinic,"{47,55}",1.88029e-07
Markwelchite,TlPbSbS3,"{""Tl"": 1.0, ""Pb"": 1.0, ""Sb"": 1.0, ""S"": 3.0}",629.52,#708090,monoclinic,{},2e-08
Marokite,CaMn3+2O4,"{""Ca"": 1.0, ""Mn"": 2.0, ""O"": 4.0}",213.95,#FFB6C1,orthorhombic,{32},1.214e-09
Marrite,AgPbAsS3,"{""Ag"": 1.0, ""Pb"": 1.0, ""As"": 1.0, ""S"": 3.0}",486.172,#708090,monoclinic,{33},2.51e-10
Marrucciite,Hg3Pb16Sb18S46,"{""Hg"": 3.0, ""Pb"": 16.0, ""Sb"": 18.0, ""S"": 46.0}",7583.41,#708090,monoclinic,{33},2.51e-10
Marsaalamite-(Y),Y(MoO4)(OH),"{""Y"": 1.0, ""Mo"": 1.0, ""O"": 5.0, ""H"": 1.0}",265.859,#FFFFFF,monoclinic,{},1e-06
Marshite,CuI,"{""Cu"": 1.0, ""I"": 1.0}",190.446,#00BFFF,cubic,{47},1.5015e-07
Marsturite,NaCaMn2+3Si5O14(OH),"{""Na"": 1.0, ""Ca"": 1.0, ""Mn"": 3.0, ""Si"": 5.0, ""O"": 15.0, ""H"": 1.0}",609.3,#FFFFFF,triclinic,"{32,34}",2.1e-09
Marthozite,Cu2+(UO2)3(Se4+O3)2O2·8H2O,"{""Cu"": 1.0, ""U"": 3.0, ""O"": 22.0, ""Se"": 2.0, ""H"": 16.0}",1303.684,#FFFFFF,orthorhombic,{47},1.5015e-07
Martinandresite,Ba2(Al4Si12O32)·10H2O,"{""Ba"": 2.0, ""Al"": 4.0, ""Si"": 12.0, ""O"": 42.0, ""H"": 20.0}",1411.726,#FFFFFF,orthorhombic,{32},2.4272e-08
Martyite,Zn3V2O7(OH)2·2H2O,"{""Zn"": 3.0, ""V"": 2.0, ""O"": 11.0, ""H"": 6.0}",480.061,#FFFFFF,hexagonal,{47},1.5015e-07