name,formula,elements,density,color,crystal_system,dna
Umohoite,(UO2)(MoO4)·2H2O,"{""U"": 1.0, ""O"": 8.0, ""Mo"": 1.0, ""H"": 4.0}",466.01,#FFFFFF,monoclinic,"{""system"": ""monoclinic"", ""scale"": [0.7, 1.0, 1.3], ""optical"": {""transparent"": 1, ""refraction"": 1.5, ""birefringence"": 0.01}}"
Ungavaite,Pd4Sb3,"{""Pd"": 4.0, ""Sb"": 3.0}",790.96,#A9A9A9,tetragonal,"{""system"": ""tetragonal"", ""scale"": [1.0, 1.0, 1.4], ""optical"": {""transparent"": 0, ""refraction"": 0.0, ""birefringence"": 0.0}}"
Ungemachite,K3Na8Fe3+(SO4)6(NO3)2·6H2O,"{""K"": 3.0, ""Na"": 8.0, ""Fe"": 1.0, ""S"": 6.0, ""O"": 36.0, ""N"": 2.0, ""H"": 12.0}",1165.55,#556B2F,hexagonal,"{""system"": ""hexagonal"", ""scale"": [1.0, 1.0, 1.6], ""optical"": {""transparent"": 0, ""refraction"": 0.0, ""birefringence"": 0.0}}"
Upalite,Al(UO2)3(PO4)2O(OH)·7H2O,"{""Al"": 1.0, ""U"": 3.0, ""O"": 23.0, ""P"": 2.0, ""H"": 15.0}",1186.13,#FFFFFF,monoclinic,"{""system"": ""monoclinic"", ""scale"": [0.7, 1.0, 1.3], ""optical"": {""transparent"": 1, ""refraction"": 1.5, ""birefringence"": 0.01}}"
Uralborite,CaB2O2(OH)4,"{""Ca"": 1.0, ""B"": 2.0, ""O"": 6.0, ""H"": 4.0}",161.73,#FFFFFF,monoclinic,"{""system"": ""monoclinic"", ""scale"": [0.7, 1.0, 1.3], ""optical"": {""transparent"": 1, ""refraction"": 1.5, ""birefringence"": 0.01}}"
Uralolite,Ca2Be4(PO4)3(OH)3·5H2O,"{""Ca"": 2.0, ""Be"": 4.0, ""P"": 3.0, ""O"": 20.0, ""H"": 13.0}",542.21,#FFFFFF,monoclinic,"{""system"": ""monoclinic"", ""scale"": [0.7, 1.0, 1.3], ""optical"": {""transparent"": 1, ""refraction"": 1.5, ""birefringence"": 0.01}}"
Uramarsite,(NH4)(UO2)(AsO4)·3H2O,"{""N"": 1.0, ""H"": 10.0, ""U"": 1.0, ""O"": 9.0, ""As"": 1.0}",481.04,#FFFFFF,triclinic,"{""system"": ""triclinic"", ""scale"": [0.7, 1.0, 1.3], ""optical"": {""transparent"": 1, ""refraction"": 1.5, ""birefringence"": 0.01}}"
Uramphite,(NH4)(UO2)(PO4)·3H2O,"{""N"": 1.0, ""H"": 10.0, ""U"": 1.0, ""O"": 9.0, ""P"": 1.0}",437.09,#FFFFFF,triclinic,"{""system"": ""triclinic"", ""scale"": [0.7, 1.0, 1.3], ""optical"": {""transparent"": 1, ""refraction"": 1.5, ""birefringence"": 0.01}}"
Urancalcarite,Ca(UO2)3(CO3)(OH)6·3H2O,"{""Ca"": 1.0, ""U"": 3.0, ""O"": 18.0, ""C"": 1.0, ""H"": 12.0}",1066.28,#FFFFFF,orthorhombic,"{""system"": ""orthorhombic"", ""scale"": [0.8, 1.0, 1.2], ""optical"": {""transparent"": 1, ""refraction"": 1.5, ""birefringence"": 0.01}}"
Uraninite,UO2,"{""U"": 1.0, ""O"": 2.0}",270.03,#ADFF2F,cubic,"{""system"": ""cubic"", ""scale"": [1.0, 1.0, 1.0], ""optical"": {""transparent"": 0, ""refraction"": 0.0, ""birefringence"": 0.0}}"
Uranocircite,Ba(UO2)2(PO4)2·10H2O,"{""Ba"": 1.0, ""U"": 2.0, ""O"": 22.0, ""P"": 2.0, ""H"": 20.0}",1047.49,#FFFFFF,monoclinic,"{""system"": ""monoclinic"", ""scale"": [0.7, 1.0, 1.3], ""optical"": {""transparent"": 1, ""refraction"": 1.5, ""birefringence"": 0.01}}"
Uranoclite,(UO2)2(OH)2Cl2(H2O)4,"{""U"": 2.0, ""O"": 10.0, ""H"": 10.0, ""Cl"": 2.0}",717.04,#FFFFFF,monoclinic,"{""system"": ""monoclinic"", ""scale"": [0.7, 1.0, 1.3], ""optical"": {""transparent"": 1, ""refraction"": 1.5, ""birefringence"": 0.01}}"
Uranophane,Ca(UO2)2(SiO3OH)2·5H2O,"{""Ca"": 1.0, ""U"": 2.0, ""O"": 17.0, ""Si"": 2.0, ""H"": 12.0}",856.42,#FFFFFF,monoclinic,"{""system"": ""monoclinic"", ""scale"": [0.7, 1.0, 1.3], ""optical"": {""transparent"": 1, ""refraction"": 1.5, ""birefringence"": 0.01}}"
Uranopilite,(UO2)6(SO4)O2(OH)6·14H2O,"{""U"": 6.0, ""O"": 38.0, ""S"": 1.0, ""H"": 34.0}",2102.51,#FFFFFF,triclinic,"{""system"": ""triclinic"", ""scale"": [0.7, 1.0, 1.3], ""optical"": {""transparent"": 1, ""refraction"": 1.5, ""birefringence"": 0.01}}"
Uranopolycrase,UTi2O6,"{""U"": 1.0, ""Ti"": 2.0, ""O"": 6.0}",429.77,#ADFF2F,orthorhombic,"{""system"": ""orthorhombic"", ""scale"": [0.8, 1.0, 1.2], ""optical"": {""transparent"": 0, ""refraction"": 0.0, ""birefringence"": 0.0}}"
Uranosilite,(UO2)Si7O15,"{""U"": 1.0, ""O"": 17.0, ""Si"": 7.0}",706.66,#ADFF2F,orthorhombic,"{""system"": ""orthorhombic"", ""scale"": [0.8, 1.0, 1.2], ""optical"": {""transparent"": 0, ""refraction"": 0.0, ""birefringence"": 0.0}}"
Uranosphaerite,Bi(UO2)O2(OH),"{""Bi"": 1.0, ""U"": 1.0, ""O"": 5.0, ""H"": 1.0}",528.02,#FFFFFF,monoclinic,"{""system"": ""monoclinic"", ""scale"": [0.7, 1.0, 1.3], ""optical"": {""transparent"": 1, ""refraction"": 1.5, ""birefringence"": 0.01}}"
Uranospinite,Ca(UO2)2(AsO4)2·10H2O,"{""Ca"": 1.0, ""U"": 2.0, ""O"": 22.0, ""As"": 2.0, ""H"": 20.0}",1038.14,#FFFFFF,,"{""system"": """", ""scale"": [1.0, 1.0, 1.0], ""optical"": {""transparent"": 1, ""refraction"": 1.5, ""birefringence"": 0.01}}"
Uranotungstite,Ba(UO2)2W2O8(OH)2·H2O,"{""Ba"": 1.0, ""U"": 2.0, ""O"": 15.0, ""W"": 2.0, ""H"": 4.0}",1225.1,#FFFFFF,orthorhombic,"{""system"": ""orthorhombic"", ""scale"": [0.8, 1.0, 1.2], ""optical"": {""transparent"": 1, ""refraction"": 1.5, ""birefringence"": 0.01}}"
Urea,CO(NH2)2,"{""C"": 1.0, ""O"": 1.0, ""N"": 2.0, ""H"": 4.0}",60.06,#FFFFFF,tetragonal,"{""system"": ""tetragonal"", ""scale"": [1.0, 1.0, 1.4], ""optical"": {""transparent"": 1, ""refraction"": 1.5, ""birefringence"": 0.01}}"
Uricite,C5H4N4O3,"{""C"": 5.0, ""H"": 4.0, ""N"": 4.0, ""O"": 3.0}",168.12,#FFFFFF,monoclinic,"{""system"": ""monoclinic"", ""scale"": [0.7, 1.0, 1.3], ""optical"": {""transparent"": 1, ""refraction"": 1.5, ""birefringence"": 0.01}}"
Uroxite,[(UO2)2(C2O4)(OH)2(H2O)2]·H2O,"{""U"": 2.0, ""O"": 13.0, ""C"": 2.0, ""H"": 8.0}",716.14,#FFFFFF,monoclinic,"{""system"": ""monoclinic"", ""scale"": [0.7, 1.0, 1.3], ""optical"": {""transparent"": 1, ""refraction"": 1.5, ""birefringence"": 0.01}}"
Urusovite,CuAlO(AsO4),"{""Cu"": 1.0, ""Al"": 1.0, ""O"": 5.0, ""As"": 1.0}",245.45,#FFFFFF,monoclinic,"{""system"": ""monoclinic"", ""scale"": [0.7, 1.0, 1.3], ""optical"": {""transparent"": 1, ""refraction"": 1.5, ""birefringence"": 0.01}}"
Ushkovite,MgFe3+2(PO4)2(OH)2·8H2O,"{""Mg"": 1.0, ""Fe"": 2.0, ""P"": 2.0, ""O"": 18.0, ""H"": 18.0}",504.09,#556B2F,triclinic,"{""system"": ""triclinic"", ""scale"": [0.7, 1.0, 1.3], ""optical"": {""transparent"": 0, ""refraction"": 0.0, ""birefringence"": 0.0}}"
Usovite,Ba2CaMgAl2F14,"{""Ba"": 2.0, ""Ca"": 1.0, ""Mg"": 1.0, ""Al"": 2.0, ""F"": 14.0}",659.01,#FFFFFF,monoclinic,"{""system"": ""monoclinic"", ""scale"": [0.7, 1.0, 1.3], ""optical"": {""transparent"": 1, ""refraction"": 1.5, ""birefringence"": 0.01}}"
Ussingite,Na2AlSi3O8(OH),"{""Na"": 2.0, ""Al"": 1.0, ""Si"": 3.0, ""O"": 9.0, ""H"": 1.0}",302.24,#FFFFFF,triclinic,"{""system"": ""triclinic"", ""scale"": [0.7, 1.0, 1.3], ""optical"": {""transparent"": 1, ""refraction"": 1.5, ""birefringence"": 0.01}}"
Usturite,Ca3(SbZr)(FeO4)3,"{""Ca"": 3.0, ""Sb"": 1.0, ""Zr"": 1.0, ""Fe"": 3.0, ""O"": 12.0}",692.77,#556B2F,cubic,"{""system"": ""cubic"", ""scale"": [1.0, 1.0, 1.0], ""optical"": {""transparent"": 0, ""refraction"": 0.0, ""birefringence"": 0.0}}"
Uvanite,(UO2)2V5+6O17·15H2O (?),"{""U"": 2.0, ""O"": 36.0, ""V"": 6.0, ""H"": 30.0}",1387.94,#FFFFFF,,"{""system"": """", ""scale"": [1.0, 1.0, 1.0], ""optical"": {""transparent"": 1, ""refraction"": 1.5, ""birefringence"": 0.01}}"
Uvarovite,Ca3Cr2(SiO4)3,"{""Ca"": 3.0, ""Cr"": 2.0, ""Si"": 3.0, ""O"": 12.0}",500.51,#FFFFFF,orthorhombic,"{""system"": ""orthorhombic"", ""scale"": [0.8, 1.0, 1.2], ""optical"": {""transparent"": 1, ""refraction"": 1.5, ""birefringence"": 0.01}}"
Uvite,CaMg3(Al5Mg)(Si6O18)(BO3)3(OH)3(OH),"{""Ca"": 1.0, ""Mg"": 4.0, ""Al"": 5.0, ""Si"": 6.0, ""O"": 31.0, ""B"": 3.0, ""H"": 4.0}",973.22,#FFFFFF,hexagonal,"{""system"": ""hexagonal"", ""scale"": [1.0, 1.0, 1.6], ""optical"": {""transparent"": 1, ""refraction"": 1.5, ""birefringence"": 0.01}}"
Uytenbogaardtite,Ag3AuS2,"{""Ag"": 3.0, ""Au"": 1.0, ""S"": 2.0}",584.7,#A9A9A9,cubic,"{""system"": ""cubic"", ""scale"": [1.0, 1.0, 1.0], ""optical"": {""transparent"": 0, ""refraction"": 0.0, ""birefringence"": 0.0}}"
Uzonite,As4S5,"{""As"": 4.0, ""S"": 5.0}",459.98,#FFD700,monoclinic,"{""system"": ""monoclinic"", ""scale"": [0.7, 1.0, 1.3], ""optical"": {""transparent"": 0, ""refraction"": 0.0, ""birefringence"": 0.0}}"
Vaesite,NiS2,"{""Ni"": 1.0, ""S"": 2.0}",122.81,#A9A9A9,cubic,"{""system"": ""cubic"", ""scale"": [1.0, 1.0, 1.0], ""optical"": {""transparent"": 0, ""refraction"": 0.0, ""birefringence"": 0.0}}"
Vajdakite,(Mo6+O2)2As3+2O5·3H2O,"{""Mo"": 2.0, ""O"": 12.0, ""As"": 2.0, ""H"": 6.0}",539.79,#FFFFFF,monoclinic,"{""system"": ""monoclinic"", ""scale"": [0.7, 1.0, 1.3], ""optical"": {""transparent"": 1, ""refraction"": 1.5, ""birefringence"": 0.01}}"
Vakhrushevaite,Mg5Cr(AlSi3O10)(OH)8,"{""Mg"": 5.0, ""Cr"": 1.0, ""Al"": 1.0, ""Si"": 3.0, ""O"": 18.0, ""H"": 8.0}",580.86,#FFFFFF,triclinic,"{""system"": ""triclinic"", ""scale"": [0.7, 1.0, 1.3], ""optical"": {""transparent"": 1, ""refraction"": 1.5, ""birefringence"": 0.01}}"
Valentinite,Sb2O3,"{""Sb"": 2.0, ""O"": 3.0}",291.52,#A9A9A9,orthorhombic,"{""system"": ""orthorhombic"", ""scale"": [0.8, 1.0, 1.2], ""optical"": {""transparent"": 0, ""refraction"": 0.0, ""birefringence"": 0.0}}"
Valleyite,Ca4Fe6O13,"{""Ca"": 4.0, ""Fe"": 6.0, ""O"": 13.0}",703.42,#8B4513,cubic,"{""system"": ""cubic"", ""scale"": [1.0, 1.0, 1.0], ""optical"": {""transparent"": 0, ""refraction"": 0.0, ""birefringence"": 0.0}}"
Vanackerite,Pb4Cd(AsO4)3Cl,"{""Pb"": 4.0, ""Cd"": 1.0, ""As"": 3.0, ""O"": 12.0, ""Cl"": 1.0}",1393.42,#FFFFFF,hexagonal,"{""system"": ""hexagonal"", ""scale"": [1.0, 1.0, 1.6], ""optical"": {""transparent"": 1, ""refraction"": 1.5, ""birefringence"": 0.01}}"
Vanadinite,Pb5(VO4)3Cl,"{""Pb"": 5.0, ""V"": 3.0, ""O"": 12.0, ""Cl"": 1.0}",1416.27,#FFFFFF,hexagonal,"{""system"": ""hexagonal"", ""scale"": [1.0, 1.0, 1.6], ""optical"": {""transparent"": 1, ""refraction"": 1.5, ""birefringence"": 0.01}}"
Vanadio-oxy-chromium-dravite,NaV3(Cr4Mg2)(Si6O18)(BO3)3(OH)3O,"{""Na"": 1.0, ""V"": 3.0, ""Cr"": 4.0, ""Mg"": 2.0, ""Si"": 6.0, ""O"": 31.0, ""B"": 3.0, ""H"": 3.0}",1132.42,#FFFFFF,hexagonal,"{""system"": ""hexagonal"", ""scale"": [1.0, 1.0, 1.6], ""optical"": {""transparent"": 1, ""refraction"": 1.5, ""birefringence"": 0.01}}"
Vanadio-oxy-dravite,NaV3(Al4Mg2)(Si6O18)(BO3)3(OH)3O,"{""Na"": 1.0, ""V"": 3.0, ""Al"": 4.0, ""Mg"": 2.0, ""Si"": 6.0, ""O"": 31.0, ""B"": 3.0, ""H"": 3.0}",1032.34,#FFFFFF,hexagonal,"{""system"": ""hexagonal"", ""scale"": [1.0, 1.0, 1.6], ""optical"": {""transparent"": 1, ""refraction"": 1.5, ""birefringence"": 0.01}}"
Vanadio-pargasite,NaCa2(Mg4V)(Si6Al2)O22(OH)2,"{""Na"": 1.0, ""Ca"": 2.0, ""Mg"": 4.0, ""V"": 1.0, ""Si"": 6.0, ""Al"": 2.0, ""O"": 24.0, ""H"": 2.0}",859.85,#FFFFFF,monoclinic,"{""system"": ""monoclinic"", ""scale"": [0.7, 1.0, 1.3], ""optical"": {""transparent"": 1, ""refraction"": 1.5, ""birefringence"": 0.01}}"
Vanadium,V,"{""V"": 1.0}",50.94,#FFFFFF,cubic,"{""system"": ""cubic"", ""scale"": [1.0, 1.0, 1.0], ""optical"": {""transparent"": 1, ""refraction"": 1.5, ""birefringence"": 0.0}}"
Vanadoallanite-(La),CaLa3+V3+AlFe2+(Si2O7)(SiO4)O(OH),"{""Ca"": 1.0, ""La"": 1.0, ""V"": 1.0, ""Al"": 1.0, ""Fe"": 1.0, ""Si"": 3.0, ""O"": 13.0, ""H"": 1.0}",606.04,#556B2F,monoclinic,"{""system"": ""monoclinic"", ""scale"": [0.7, 1.0, 1.3], ""optical"": {""transparent"": 0, ""refraction"": 0.0, ""birefringence"": 0.0}}"
Vanadomalayaite,CaVO(SiO4),"{""Ca"": 1.0, ""V"": 1.0, ""O"": 5.0, ""Si"": 1.0}",199.11,#FFFFFF,monoclinic,"{""system"": ""monoclinic"", ""scale"": [0.7, 1.0, 1.3], ""optical"": {""transparent"": 1, ""refraction"": 1.5, ""birefringence"": 0.01}}"
Vanalite,NaAl8V10O38·30H2O,"{""Na"": 1.0, ""Al"": 8.0, ""V"": 10.0, ""O"": 68.0, ""H"": 60.0}",1896.71,#FFFFFF,monoclinic,"{""system"": ""monoclinic"", ""scale"": [0.7, 1.0, 1.3], ""optical"": {""transparent"": 1, ""refraction"": 1.5, ""birefringence"": 0.01}}"
Vandenbrandeite,Cu(UO2)(OH)4,"{""Cu"": 1.0, ""U"": 1.0, ""O"": 6.0, ""H"": 4.0}",401.61,#FFFFFF,triclinic,"{""system"": ""triclinic"", ""scale"": [0.7, 1.0, 1.3], ""optical"": {""transparent"": 1, ""refraction"": 1.5, ""birefringence"": 0.01}}"
Vandermeerscheite,K2[(UO2)2V2O8]·2H2O,"{""K"": 2.0, ""U"": 2.0, ""O"": 14.0, ""V"": 2.0, ""H"": 4.0}",884.17,#FFFFFF,monoclinic,"{""system"": ""monoclinic"", ""scale"": [0.7, 1.0, 1.3], ""optical"": {""transparent"": 1, ""refraction"": 1.5, ""birefringence"": 0.01}}"
Vanmeersscheite,U(UO2)3(PO4)2(OH)6·4H2O,"{""U"": 4.0, ""O"": 24.0, ""P"": 2.0, ""H"": 14.0}",1412.17,#FFFFFF,orthorhombic,"{""system"": ""orthorhombic"", ""scale"": [0.8, 1.0, 1.2], ""optical"": {""transparent"": 1, ""refraction"": 1.5, ""birefringence"": 0.01}}"
Vanoxite,V6O13·8H2O (?),"{""V"": 6.0, ""O"": 21.0, ""H"": 16.0}",657.77,#FFFFFF,,"{""system"": """", ""scale"": [1.0, 1.0, 1.0], ""optical"": {""transparent"": 1, ""refraction"": 1.5, ""birefringence"": 0.01}}"
Vanpeltite,(Mo2O5)(S4+O3)·4H2O,"{""Mo"": 2.0, ""O"": 12.0, ""S"": 1.0, ""H"": 8.0}",424.02,#FFFFFF,monoclinic,"{""system"": ""monoclinic"", ""scale"": [0.7, 1.0, 1.3], ""optical"": {""transparent"": 1, ""refraction"": 1.5, ""birefringence"": 0.01}}"
Vantasselite,Al4(PO4)3(OH)3·9H2O,"{""Al"": 4.0, ""P"": 3.0, ""O"": 24.0, ""H"": 21.0}",606.0,#FFFFFF,orthorhombic,"{""system"": ""orthorhombic"", ""scale"": [0.8, 1.0, 1.2], ""optical"": {""transparent"": 1, ""refraction"": 1.5, ""birefringence"": 0.01}}"
Vanthoffite,Na6Mg(SO4)4,"{""Na"": 6.0, ""Mg"": 1.0, ""S"": 4.0, ""O"": 16.0}",546.49,#FFFFFF,monoclinic,"{""system"": ""monoclinic"", ""scale"": [0.7, 1.0, 1.3], ""optical"": {""transparent"": 1, ""refraction"": 1.5, ""birefringence"": 0.01}}"
Vapnikite,Ca2CaUO6,"{""Ca"": 3.0, ""U"": 1.0, ""O"": 6.0}",454.27,#ADFF2F,monoclinic,"{""system"": ""monoclinic"", ""scale"": [0.7, 1.0, 1.3], ""optical"": {""transparent"": 0, ""refraction"": 0.0, ""birefringence"": 0.0}}"
Variscite,Al(PO4)·2H2O,"{""Al"": 1.0, ""P"": 1.0, ""O"": 6.0, ""H"": 4.0}",157.98,#FFFFFF,orthorhombic,"{""system"": ""orthorhombic"", ""scale"": [0.8, 1.0, 1.2], ""optical"": {""transparent"": 1, ""refraction"": 1.5, ""birefringence"": 0.01}}"
Vashegyite,Al11(PO4)9(OH)6·38H2O,"{""Al"": 11.0, ""P"": 9.0, ""O"": 80.0, ""H"": 82.0}",1938.17,#FFFFFF,orthorhombic,"{""system"": ""orthorhombic"", ""scale"": [0.8, 1.0, 1.2], ""optical"": {""transparent"": 1, ""refraction"": 1.5, ""birefringence"": 0.01}}"
Vasilseverginite,Cu9O4(AsO4)2(SO4)2,"{""Cu"": 9.0, ""O"": 20.0, ""As"": 2.0, ""S"": 2.0}",1105.91,#FFFFFF,monoclinic,"{""system"": ""monoclinic"", ""scale"": [0.7, 1.0, 1.3], ""optical"": {""transparent"": 1, ""refraction"": 1.5, ""birefringence"": 0.01}}"
Vasilyevite,(Hg2)2+10O6I3Br2Cl(CO3),"{""Hg"": 20.0, ""O"": 9.0, ""I"": 3.0, ""Br"": 2.0, ""Cl"": 1.0, ""C"": 1.0}",4743.76,#FFFFFF,triclinic,"{""system"": ""triclinic"", ""scale"": [0.7, 1.0, 1.3], ""optical"": {""transparent"": 1, ""refraction"": 1.5, ""birefringence"": 0.01}}"
Vastmanlandite-(Ce),Ce3CaMg2Al2Si5O19(OH)2F,"{""Ce"": 3.0, ""Ca"": 1.0, ""Mg"": 2.0, ""Al"": 2.0, ""Si"": 5.0, ""O"": 21.0, ""H"": 2.0, ""F"": 1.0}",1060.49,#FFFFFF,monoclinic,"{""system"": ""monoclinic"", ""scale"": [0.7, 1.0, 1.3], ""optical"": {""transparent"": 1, ""refraction"": 1.5, ""birefringence"": 0.01}}"
Vaterite,Ca(CO3),"{""Ca"": 1.0, ""C"": 1.0, ""O"": 3.0}",100.09,#FFFFFF,triclinic,"{""system"": ""triclinic"", ""scale"": [0.7, 1.0, 1.3], ""optical"": {""transparent"": 1, ""refraction"": 1.5, ""birefringence"": 0.01}}"
Vaughanite,TlHgSb4S7,"{""Tl"": 1.0, ""Hg"": 1.0, ""Sb"": 4.0, ""S"": 7.0}",1116.43,#A9A9A9,triclinic,"{""system"": ""triclinic"", ""scale"": [0.7, 1.0, 1.3], ""optical"": {""transparent"": 0, ""refraction"": 0.0, ""birefringence"": 0.0}}"
Vauquelinite,CuPb2(CrO4)(PO4)(OH),"{""Cu"": 1.0, ""Pb"": 2.0, ""Cr"": 1.0, ""O"": 9.0, ""P"": 1.0, ""H"": 1.0}",705.93,#FFFFFF,monoclinic,"{""system"": ""monoclinic"", ""scale"": [0.7, 1.0, 1.3], ""optical"": {""transparent"": 1, ""refraction"": 1.5, ""birefringence"": 0.01}}"
Vauxite,Fe2+Al2(PO4)2(OH)2·6H2O,"{""Fe"": 1.0, ""Al"": 2.0, ""P"": 2.0, ""O"": 16.0, ""H"": 14.0}",441.86,#556B2F,triclinic,"{""system"": ""triclinic"", ""scale"": [0.7, 1.0, 1.3], ""optical"": {""transparent"": 0, ""refraction"": 0.0, ""birefringence"": 0.0}}"
Vavrinite,Ni2SbTe2,"{""Ni"": 2.0, ""Sb"": 1.0, ""Te"": 2.0}",494.34,#7FFF00,hexagonal,"{""system"": ""hexagonal"", ""scale"": [1.0, 1.0, 1.6], ""optical"": {""transparent"": 0, ""refraction"": 0.0, ""birefringence"": 0.0}}"
Veatchite,Sr2B11O16(OH)5·H2O,"{""Sr"": 2.0, ""B"": 11.0, ""O"": 22.0, ""H"": 7.0}",653.21,#FFFFFF,triclinic,"{""system"": ""triclinic"", ""scale"": [0.7, 1.0, 1.3], ""optical"": {""transparent"": 1, ""refraction"": 1.5, ""birefringence"": 0.01}}"
Vegrandisite,BaCl2,"{""Ba"": 1.0, ""Cl"": 2.0}",208.23,#FFFFFF,orthorhombic,"{""system"": ""orthorhombic"", ""scale"": [0.8, 1.0, 1.2], ""optical"": {""transparent"": 1, ""refraction"": 1.5, ""birefringence"": 0.01}}"
Vendidaite,Al2(SO4)(OH)3Cl·6H2O,"{""Al"": 2.0, ""S"": 1.0, ""O"": 13.0, ""H"": 15.0, ""Cl"": 1.0}",344.59,#FFFFFF,monoclinic,"{""system"": ""monoclinic"", ""scale"": [0.7, 1.0, 1.3], ""optical"": {""transparent"": 1, ""refraction"": 1.5, ""birefringence"": 0.01}}"
Verbeekite,PdSe2,"{""Pd"": 1.0, ""Se"": 2.0}",264.34,#FFFFFF,monoclinic,"{""system"": ""monoclinic"", ""scale"": [0.7, 1.0, 1.3], ""optical"": {""transparent"": 1, ""refraction"": 1.5, ""birefringence"": 0.01}}"
Verbierite,BeCr3+2TiO6,"{""Be"": 1.0, ""Cr"": 2.0, ""Ti"": 1.0, ""O"": 6.0}",256.88,#FFFFFF,orthorhombic,"{""system"": ""orthorhombic"", ""scale"": [0.8, 1.0, 1.2], ""optical"": {""transparent"": 1, ""refraction"": 1.5, ""birefringence"": 0.01}}"
Vergasovaite,Cu3O(MoO4)(SO4),"{""Cu"": 3.0, ""O"": 9.0, ""Mo"": 1.0, ""S"": 1.0}",462.66,#FFFFFF,orthorhombic,"{""system"": ""orthorhombic"", ""scale"": [0.8, 1.0, 1.2], ""optical"": {""transparent"": 1, ""refraction"": 1.5, ""birefringence"": 0.01}}"
Verneite,Na2Ca3Al2F14,"{""Na"": 2.0, ""Ca"": 3.0, ""Al"": 2.0, ""F"": 14.0}",486.18,#FFFFFF,cubic,"{""system"": ""cubic"", ""scale"": [1.0, 1.0, 1.0], ""optical"": {""transparent"": 1, ""refraction"": 1.5, ""birefringence"": 0.0}}"
Versiliaite,(Fe2+2Fe3+2)(Fe3+2Sb3+6)O16S,"{""Fe"": 6.0, ""Sb"": 6.0, ""O"": 16.0, ""S"": 1.0}",1353.72,#556B2F,orthorhombic,"{""system"": ""orthorhombic"", ""scale"": [0.8, 1.0, 1.2], ""optical"": {""transparent"": 0, ""refraction"": 0.0, ""birefringence"": 0.0}}"
Vertumnite,Ca4Al4Si4O6(OH)24·3H2O,"{""Ca"": 4.0, ""Al"": 4.0, ""Si"": 4.0, ""O"": 33.0, ""H"": 30.0}",938.84,#FFFFFF,hexagonal,"{""system"": ""hexagonal"", ""scale"": [1.0, 1.0, 1.6], ""optical"": {""transparent"": 1, ""refraction"": 1.5, ""birefringence"": 0.01}}"
Vesignieite,Cu3Ba(VO4)2(OH)2,"{""Cu"": 3.0, ""Ba"": 1.0, ""V"": 2.0, ""O"": 10.0, ""H"": 2.0}",591.88,#FFFFFF,monoclinic,"{""system"": ""monoclinic"", ""scale"": [0.7, 1.0, 1.3], ""optical"": {""transparent"": 1, ""refraction"": 1.5, ""birefringence"": 0.01}}"
Vestaite,(Ti4+Fe2+)Ti4+3O9,"{""Ti"": 4.0, ""Fe"": 1.0, ""O"": 9.0}",391.33,#8B4513,monoclinic,"{""system"": ""monoclinic"", ""scale"": [0.7, 1.0, 1.3], ""optical"": {""transparent"": 0, ""refraction"": 0.0, ""birefringence"": 0.0}}"
Vigezzite,CaNb2O6,"{""Ca"": 1.0, ""Nb"": 2.0, ""O"": 6.0}",321.9,#FFFFFF,orthorhombic,"{""system"": ""orthorhombic"", ""scale"": [0.8, 1.0, 1.2], ""optical"": {""transparent"": 1, ""refraction"": 1.5, ""birefringence"": 0.01}}"
Vihorlatite,Bi24Se17Te4,"{""Bi"": 24.0, ""Se"": 17.0, ""Te"": 4.0}",6868.24,#D2B48C,hexagonal,"{""system"": ""hexagonal"", ""scale"": [1.0, 1.0, 1.6], ""optical"": {""transparent"": 0, ""refraction"": 0.0, ""birefringence"": 0.0}}"
Viitaniemiite,NaCaAl(PO4)F3,"{""Na"": 1.0, ""Ca"": 1.0, ""Al"": 1.0, ""P"": 1.0, ""O"": 4.0, ""F"": 3.0}",242.02,#FFFFFF,monoclinic,"{""system"": ""monoclinic"", ""scale"": [0.7, 1.0, 1.3], ""optical"": {""transparent"": 1, ""refraction"": 1.5, ""birefringence"": 0.01}}"
Vikingite,Ag5Pb8Bi13S30,"{""Ag"": 5.0, ""Pb"": 8.0, ""Bi"": 13.0, ""S"": 30.0}",5875.49,#708090,monoclinic,"{""system"": ""monoclinic"", ""scale"": [0.7, 1.0, 1.3], ""optical"": {""transparent"": 0, ""refraction"": 0.0, ""birefringence"": 0.0}}"