name,formula,elements,density,color,crystal_system,dna
Bunsenite,NiO,"{""Ni"": 1.0, ""O"": 1.0}",74.69,#7FFF00,cubic,"{""system"": ""cubic"", ""scale"": [1.0, 1.0, 1.0], ""optical"": {""transparent"": 0, ""refraction"": 0.0, ""birefringence"": 0.0}}"
Burangaite,NaFe2+Al5(PO4)4(OH)6·2H2O,"{""Na"": 1.0, ""Fe"": 1.0, ""Al"": 5.0, ""P"": 4.0, ""O"": 24.0, ""H"": 10.0}",731.7,#556B2F,monoclinic,"{""system"": ""monoclinic"", ""scale"": [0.7, 1.0, 1.3], ""optical"": {""transparent"": 0, ""refraction"": 0.0, ""birefringence"": 0.0}}"
Burckhardtite,Pb2(Fe3+Te6+)(AlSi3O8)O6,"{""Pb"": 2.0, ""Fe"": 1.0, ""Te"": 1.0, ""Al"": 1.0, ""Si"": 3.0, ""O"": 14.0}",933.1,#556B2F,hexagonal,"{""system"": ""hexagonal"", ""scale"": [1.0, 1.0, 1.6], ""optical"": {""transparent"": 0, ""refraction"": 0.0, ""birefringence"": 0.0}}"
Burgessite,Co2(H2O)4[AsO3(OH)]2(H2O),"{""Co"": 2.0, ""H"": 12.0, ""O"": 13.0, ""As"": 2.0}",487.8,#FFFFFF,monoclinic,"{""system"": ""monoclinic"", ""scale"": [0.7, 1.0, 1.3], ""optical"": {""transparent"": 1, ""refraction"": 1.5, ""birefringence"": 0.01}}"
Burkeite,Na4(SO4)(CO3),"{""Na"": 4.0, ""S"": 1.0, ""O"": 7.0, ""C"": 1.0}",248.03,#FFFFFF,orthorhombic,"{""system"": ""orthorhombic"", ""scale"": [0.8, 1.0, 1.2], ""optical"": {""transparent"": 1, ""refraction"": 1.5, ""birefringence"": 0.01}}"
Burnettite,CaVAlSiO6,"{""Ca"": 1.0, ""V"": 1.0, ""Al"": 1.0, ""Si"": 1.0, ""O"": 6.0}",242.09,#FFFFFF,monoclinic,"{""system"": ""monoclinic"", ""scale"": [0.7, 1.0, 1.3], ""optical"": {""transparent"": 1, ""refraction"": 1.5, ""birefringence"": 0.01}}"
Burnsite,KCdCu7O2(SeO3)2Cl9,"{""K"": 1.0, ""Cd"": 1.0, ""Cu"": 7.0, ""O"": 8.0, ""Se"": 2.0, ""Cl"": 9.0}",1201.33,#FFFFFF,hexagonal,"{""system"": ""hexagonal"", ""scale"": [1.0, 1.0, 1.6], ""optical"": {""transparent"": 1, ""refraction"": 1.5, ""birefringence"": 0.01}}"
Burpalite,Na4Ca2Zr2(Si2O7)2F4,"{""Na"": 4.0, ""Ca"": 2.0, ""Zr"": 2.0, ""Si"": 4.0, ""O"": 14.0, ""F"": 4.0}",766.92,#FFFFFF,monoclinic,"{""system"": ""monoclinic"", ""scale"": [0.7, 1.0, 1.3], ""optical"": {""transparent"": 1, ""refraction"": 1.5, ""birefringence"": 0.01}}"
Burroite,Ca2(NH4)2(V10O28)·15H2O,"{""Ca"": 2.0, ""N"": 2.0, ""H"": 38.0, ""V"": 10.0, ""O"": 43.0}",1343.88,#FFFFFF,triclinic,"{""system"": ""triclinic"", ""scale"": [0.7, 1.0, 1.3], ""optical"": {""transparent"": 1, ""refraction"": 1.5, ""birefringence"": 0.01}}"
Bushmakinite,Pb2Al(PO4)(VO4)(OH),"{""Pb"": 2.0, ""Al"": 1.0, ""P"": 1.0, ""O"": 9.0, ""V"": 1.0, ""H"": 1.0}",668.3,#FFFFFF,monoclinic,"{""system"": ""monoclinic"", ""scale"": [0.7, 1.0, 1.3], ""optical"": {""transparent"": 1, ""refraction"": 1.5, ""birefringence"": 0.01}}"
Butlerite,Fe3+(SO4)(OH)·2H2O,"{""Fe"": 1.0, ""S"": 1.0, ""O"": 7.0, ""H"": 5.0}",204.95,#556B2F,monoclinic,"{""system"": ""monoclinic"", ""scale"": [0.7, 1.0, 1.3], ""optical"": {""transparent"": 0, ""refraction"": 0.0, ""birefringence"": 0.0}}"
Butschliite,K2Ca(CO3)2,"{""K"": 2.0, ""Ca"": 1.0, ""C"": 2.0, ""O"": 6.0}",238.3,#FFFFFF,hexagonal,"{""system"": ""hexagonal"", ""scale"": [1.0, 1.0, 1.6], ""optical"": {""transparent"": 1, ""refraction"": 1.5, ""birefringence"": 0.01}}"
Buynite,TlPb14As17S40,"{""Tl"": 1.0, ""Pb"": 14.0, ""As"": 17.0, ""S"": 40.0}",5661.22,#708090,monoclinic,"{""system"": ""monoclinic"", ""scale"": [0.7, 1.0, 1.3], ""optical"": {""transparent"": 0, ""refraction"": 0.0, ""birefringence"": 0.0}}"
Bystrite,Na7Ca(Al6Si6)O24(S5)2-Cl1-,"{""Na"": 7.0, ""Ca"": 1.0, ""Al"": 6.0, ""Si"": 6.0, ""O"": 24.0, ""S"": 5.0, ""Cl"": 1.0}",1111.18,#FFFFFF,hexagonal,"{""system"": ""hexagonal"", ""scale"": [1.0, 1.0, 1.6], ""optical"": {""transparent"": 1, ""refraction"": 1.5, ""birefringence"": 0.01}}"
Bystromite,MgSb5+2O6,"{""Mg"": 1.0, ""Sb"": 2.0, ""O"": 6.0}",363.83,#A9A9A9,tetragonal,"{""system"": ""tetragonal"", ""scale"": [1.0, 1.0, 1.4], ""optical"": {""transparent"": 0, ""refraction"": 0.0, ""birefringence"": 0.0}}"
Bytizite,Cu3SbSe3,"{""Cu"": 3.0, ""Sb"": 1.0, ""Se"": 3.0}",549.29,#00BFFF,orthorhombic,"{""system"": ""orthorhombic"", ""scale"": [0.8, 1.0, 1.2], ""optical"": {""transparent"": 0, ""refraction"": 0.0, ""birefringence"": 0.0}}"
Cabalzarite,CaMg2(AsO4)2·2H2O,"{""Ca"": 1.0, ""Mg"": 2.0, ""As"": 2.0, ""O"": 10.0, ""H"": 4.0}",402.57,#FFFFFF,monoclinic,"{""system"": ""monoclinic"", ""scale"": [0.7, 1.0, 1.3], ""optical"": {""transparent"": 1, ""refraction"": 1.5, ""birefringence"": 0.01}}"
Cabrerite,NiMg2(AsO4)2·8H2O,"{""Ni"": 1.0, ""Mg"": 2.0, ""As"": 2.0, ""O"": 16.0, ""H"": 16.0}",529.28,#FFFFFF,monoclinic,"{""system"": ""monoclinic"", ""scale"": [0.7, 1.0, 1.3], ""optical"": {""transparent"": 1, ""refraction"": 1.5, ""birefringence"": 0.01}}"
Cabvinite,Th2F7(OH)·3H2O,"{""Th"": 2.0, ""F"": 7.0, ""O"": 4.0, ""H"": 7.0}",668.14,#FFFFFF,tetragonal,"{""system"": ""tetragonal"", ""scale"": [1.0, 1.0, 1.4], ""optical"": {""transparent"": 1, ""refraction"": 1.5, ""birefringence"": 0.01}}"
Cacoxenite,Fe3+24AlO6(PO4)17(OH)12·75H2O,"{""Fe"": 24.0, ""Al"": 1.0, ""O"": 161.0, ""P"": 17.0, ""H"": 162.0}",4633.17,#556B2F,hexagonal,"{""system"": ""hexagonal"", ""scale"": [1.0, 1.0, 1.6], ""optical"": {""transparent"": 0, ""refraction"": 0.0, ""birefringence"": 0.0}}"
Cadmium,Cd,"{""Cd"": 1.0}",112.41,#FFFFFF,hexagonal,"{""system"": ""hexagonal"", ""scale"": [1.0, 1.0, 1.6], ""optical"": {""transparent"": 1, ""refraction"": 1.5, ""birefringence"": 0.01}}"
Cadmoselite,CdSe,"{""Cd"": 1.0, ""Se"": 1.0}",191.37,#FFFFFF,hexagonal,"{""system"": ""hexagonal"", ""scale"": [1.0, 1.0, 1.6], ""optical"": {""transparent"": 1, ""refraction"": 1.5, ""birefringence"": 0.01}}"
Cadsulfohite,Cd2(SO4)(OH)2,"{""Cd"": 2.0, ""S"": 1.0, ""O"": 6.0, ""H"": 2.0}",354.9,#FFFFFF,monoclinic,"{""system"": ""monoclinic"", ""scale"": [0.7, 1.0, 1.3], ""optical"": {""transparent"": 1, ""refraction"": 1.5, ""birefringence"": 0.01}}"
Cadvanite,Cd(VO3)2,"{""Cd"": 1.0, ""V"": 2.0, ""O"": 6.0}",310.29,#FFFFFF,monoclinic,"{""system"": ""monoclinic"", ""scale"": [0.7, 1.0, 1.3], ""optical"": {""transparent"": 1, ""refraction"": 1.5, ""birefringence"": 0.01}}"
Caesiumpharmacosiderite,CsFe4[(AsO4)3(OH)4]·4H2O,"{""Cs"": 1.0, ""Fe"": 4.0, ""As"": 3.0, ""O"": 20.0, ""H"": 12.0}",913.17,#556B2F,cubic,"{""system"": ""cubic"", ""scale"": [1.0, 1.0, 1.0], ""optical"": {""transparent"": 0, ""refraction"": 0.0, ""birefringence"": 0.0}}"
Cafetite,CaTi2O5·H2O,"{""Ca"": 1.0, ""Ti"": 2.0, ""O"": 6.0, ""H"": 2.0}",233.84,#FFFFFF,monoclinic,"{""system"": ""monoclinic"", ""scale"": [0.7, 1.0, 1.3], ""optical"": {""transparent"": 1, ""refraction"": 1.5, ""birefringence"": 0.01}}"
Cahnite,Ca2B(AsO4)(OH)4,"{""Ca"": 2.0, ""B"": 1.0, ""As"": 1.0, ""O"": 8.0, ""H"": 4.0}",297.92,#FFFFFF,tetragonal,"{""system"": ""tetragonal"", ""scale"": [1.0, 1.0, 1.4], ""optical"": {""transparent"": 1, ""refraction"": 1.5, ""birefringence"": 0.01}}"
Calamaite,Na2TiO(SO4)2·2H2O,"{""Na"": 2.0, ""Ti"": 1.0, ""O"": 11.0, ""S"": 2.0, ""H"": 4.0}",338.0,#FFFFFF,orthorhombic,"{""system"": ""orthorhombic"", ""scale"": [0.8, 1.0, 1.2], ""optical"": {""transparent"": 1, ""refraction"": 1.5, ""birefringence"": 0.01}}"
Calaverite,AuTe2,"{""Au"": 1.0, ""Te"": 2.0}",452.17,#FFD700,monoclinic,"{""system"": ""monoclinic"", ""scale"": [0.7, 1.0, 1.3], ""optical"": {""transparent"": 0, ""refraction"": 0.0, ""birefringence"": 0.0}}"
Calciborite,CaB2O4,"{""Ca"": 1.0, ""B"": 2.0, ""O"": 4.0}",125.7,#FFFFFF,orthorhombic,"{""system"": ""orthorhombic"", ""scale"": [0.8, 1.0, 1.2], ""optical"": {""transparent"": 1, ""refraction"": 1.5, ""birefringence"": 0.01}}"
Calcinaksite,KNaCa(Si4O10)·H2O,"{""K"": 1.0, ""Na"": 1.0, ""Ca"": 1.0, ""Si"": 4.0, ""O"": 11.0, ""H"": 2.0}",392.55,#FFFFFF,triclinic,"{""system"": ""triclinic"", ""scale"": [0.7, 1.0, 1.3], ""optical"": {""transparent"": 1, ""refraction"": 1.5, ""birefringence"": 0.01}}"
Calcioancylite-(La),(LaCa)(CO3)2(OH)(H2O),"{""La"": 1.0, ""Ca"": 1.0, ""C"": 2.0, ""O"": 8.0, ""H"": 3.0}",334.03,#FFFFFF,orthorhombic,"{""system"": ""orthorhombic"", ""scale"": [0.8, 1.0, 1.2], ""optical"": {""transparent"": 1, ""refraction"": 1.5, ""birefringence"": 0.01}}"
Calcioandyrobertsite,KCaCu5(AsO4)4[As(OH)2O2]·2H2O,"{""K"": 1.0, ""Ca"": 1.0, ""Cu"": 5.0, ""As"": 5.0, ""O"": 22.0, ""H"": 6.0}",1129.58,#FFFFFF,orthorhombic,"{""system"": ""orthorhombic"", ""scale"": [0.8, 1.0, 1.2], ""optical"": {""transparent"": 1, ""refraction"": 1.5, ""birefringence"": 0.01}}"
Calcioaravaipaite,PbCa2AlF9,"{""Pb"": 1.0, ""Ca"": 2.0, ""Al"": 1.0, ""F"": 9.0}",485.34,#FFFFFF,triclinic,"{""system"": ""triclinic"", ""scale"": [0.7, 1.0, 1.3], ""optical"": {""transparent"": 1, ""refraction"": 1.5, ""birefringence"": 0.01}}"
Calciocatapleiite,CaZrSi3O9·2H2O,"{""Ca"": 1.0, ""Zr"": 1.0, ""Si"": 3.0, ""O"": 11.0, ""H"": 4.0}",395.6,#FFFFFF,orthorhombic,"{""system"": ""orthorhombic"", ""scale"": [0.8, 1.0, 1.2], ""optical"": {""transparent"": 1, ""refraction"": 1.5, ""birefringence"": 0.01}}"
Calciocopiapite,CaFe3+4(SO4)6(OH)2·20H2O,"{""Ca"": 1.0, ""Fe"": 4.0, ""S"": 6.0, ""O"": 46.0, ""H"": 42.0}",1234.18,#556B2F,triclinic,"{""system"": ""triclinic"", ""scale"": [0.7, 1.0, 1.3], ""optical"": {""transparent"": 0, ""refraction"": 0.0, ""birefringence"": 0.0}}"
Calciodelrioite,Ca(VO3)2·4H2O,"{""Ca"": 1.0, ""V"": 2.0, ""O"": 10.0, ""H"": 8.0}",310.02,#FFFFFF,monoclinic,"{""system"": ""monoclinic"", ""scale"": [0.7, 1.0, 1.3], ""optical"": {""transparent"": 1, ""refraction"": 1.5, ""birefringence"": 0.01}}"
Calcioferrite,Ca4MgFe3+4(PO4)6(OH)4·12H2O,"{""Ca"": 4.0, ""Mg"": 1.0, ""Fe"": 4.0, ""P"": 6.0, ""O"": 40.0, ""H"": 28.0}",1262.07,#556B2F,monoclinic,"{""system"": ""monoclinic"", ""scale"": [0.7, 1.0, 1.3], ""optical"": {""transparent"": 0, ""refraction"": 0.0, ""birefringence"": 0.0}}"
Calciohatertite,NaNaCa(CaFe3+)(AsO4)3,"{""Na"": 2.0, ""Ca"": 2.0, ""Fe"": 1.0, ""As"": 3.0, ""O"": 12.0}",598.75,#556B2F,monoclinic,"{""system"": ""monoclinic"", ""scale"": [0.7, 1.0, 1.3], ""optical"": {""transparent"": 0, ""refraction"": 0.0, ""birefringence"": 0.0}}"
Calciohilairite,CaZrSi3O9·3H2O,"{""Ca"": 1.0, ""Zr"": 1.0, ""Si"": 3.0, ""O"": 12.0, ""H"": 6.0}",413.62,#FFFFFF,hexagonal,"{""system"": ""hexagonal"", ""scale"": [1.0, 1.0, 1.6], ""optical"": {""transparent"": 1, ""refraction"": 1.5, ""birefringence"": 0.01}}"
Calciojohillerite,NaCaMgMg2(AsO4)3,"{""Na"": 1.0, ""Ca"": 1.0, ""Mg"": 3.0, ""As"": 3.0, ""O"": 12.0}",552.76,#FFFFFF,monoclinic,"{""system"": ""monoclinic"", ""scale"": [0.7, 1.0, 1.3], ""optical"": {""transparent"": 1, ""refraction"": 1.5, ""birefringence"": 0.01}}"
Calciolangbeinite,K2Ca2(SO4)3,"{""K"": 2.0, ""Ca"": 2.0, ""S"": 3.0, ""O"": 12.0}",446.54,#FFFFFF,cubic,"{""system"": ""cubic"", ""scale"": [1.0, 1.0, 1.0], ""optical"": {""transparent"": 1, ""refraction"": 1.5, ""birefringence"": 0.0}}"
Calcio-olivine,Ca2(SiO4),"{""Ca"": 2.0, ""Si"": 1.0, ""O"": 4.0}",172.25,#FFFFFF,orthorhombic,"{""system"": ""orthorhombic"", ""scale"": [0.8, 1.0, 1.2], ""optical"": {""transparent"": 1, ""refraction"": 1.5, ""birefringence"": 0.01}}"
Calciopetersite,CaCu6(PO4)2(PO3OH)(OH)6·3H2O,"{""Ca"": 1.0, ""Cu"": 6.0, ""P"": 3.0, ""O"": 21.0, ""H"": 13.0}",863.39,#FFFFFF,hexagonal,"{""system"": ""hexagonal"", ""scale"": [1.0, 1.0, 1.6], ""optical"": {""transparent"": 1, ""refraction"": 1.5, ""birefringence"": 0.01}}"
Calciotantite,CaTa4O11,"{""Ca"": 1.0, ""Ta"": 4.0, ""O"": 11.0}",939.88,#FFFFFF,hexagonal,"{""system"": ""hexagonal"", ""scale"": [1.0, 1.0, 1.6], ""optical"": {""transparent"": 1, ""refraction"": 1.5, ""birefringence"": 0.01}}"
Calcioursilite,Ca4(UO2)4(Si2O5)5(OH)6·15H2O,"{""Ca"": 4.0, ""U"": 4.0, ""O"": 54.0, ""Si"": 10.0, ""H"": 36.0}",2293.63,#FFFFFF,orthorhombic,"{""system"": ""orthorhombic"", ""scale"": [0.8, 1.0, 1.2], ""optical"": {""transparent"": 1, ""refraction"": 1.5, ""birefringence"": 0.01}}"
Calcioveatchite,SrCaB11O16(OH)5·H2O,"{""Sr"": 1.0, ""Ca"": 1.0, ""B"": 11.0, ""O"": 22.0, ""H"": 7.0}",605.67,#FFFFFF,monoclinic,"{""system"": ""monoclinic"", ""scale"": [0.7, 1.0, 1.3], ""optical"": {""transparent"": 1, ""refraction"": 1.5, ""birefringence"": 0.01}}"
Calcite,Ca(CO3),"{""Ca"": 1.0, ""C"": 1.0, ""O"": 3.0}",100.09,#FFFFFF,hexagonal,"{""system"": ""hexagonal"", ""scale"": [1.0, 1.0, 1.6], ""optical"": {""transparent"": 1, ""refraction"": 1.5, ""birefringence"": 0.01}}"
Calclacite,Ca(CH3COO)Cl·5H2O,"{""Ca"": 1.0, ""C"": 2.0, ""H"": 13.0, ""O"": 7.0, ""Cl"": 1.0}",224.65,#FFFFFF,monoclinic,"{""system"": ""monoclinic"", ""scale"": [0.7, 1.0, 1.3], ""optical"": {""transparent"": 1, ""refraction"": 1.5, ""birefringence"": 0.01}}"
Calderonite,Pb2Fe3+(VO4)2(OH),"{""Pb"": 2.0, ""Fe"": 1.0, ""V"": 2.0, ""O"": 9.0, ""H"": 1.0}",717.14,#556B2F,monoclinic,"{""system"": ""monoclinic"", ""scale"": [0.7, 1.0, 1.3], ""optical"": {""transparent"": 0, ""refraction"": 0.0, ""birefringence"": 0.0}}"
Caledonite,Cu2Pb5(SO4)3(CO3)(OH)6,"{""Cu"": 2.0, ""Pb"": 5.0, ""S"": 3.0, ""O"": 21.0, ""C"": 1.0, ""H"": 6.0}",1613.34,#FFFFFF,orthorhombic,"{""system"": ""orthorhombic"", ""scale"": [0.8, 1.0, 1.2], ""optical"": {""transparent"": 1, ""refraction"": 1.5, ""birefringence"": 0.01}}"
Calkinsite-(Ce),Ce2(CO3)3·4H2O,"{""Ce"": 2.0, ""C"": 3.0, ""O"": 13.0, ""H"": 8.0}",532.33,#FFFFFF,orthorhombic,"{""system"": ""orthorhombic"", ""scale"": [0.8, 1.0, 1.2], ""optical"": {""transparent"": 1, ""refraction"": 1.5, ""birefringence"": 0.01}}"
Callaghanite,Cu2Mg2(CO3)(OH)6·2H2O,"{""Cu"": 2.0, ""Mg"": 2.0, ""C"": 1.0, ""O"": 11.0, ""H"": 10.0}",373.81,#FFFFFF,monoclinic,"{""system"": ""monoclinic"", ""scale"": [0.7, 1.0, 1.3], ""optical"": {""transparent"": 1, ""refraction"": 1.5, ""birefringence"": 0.01}}"
Calomel,HgCl,"{""Hg"": 1.0, ""Cl"": 1.0}",236.04,#FFFFFF,tetragonal,"{""system"": ""tetragonal"", ""scale"": [1.0, 1.0, 1.4], ""optical"": {""transparent"": 1, ""refraction"": 1.5, ""birefringence"": 0.01}}"
Calzirtite,Ca2Zr5Ti2O16,"{""Ca"": 2.0, ""Zr"": 5.0, ""Ti"": 2.0, ""O"": 16.0}",888.0,#FFFFFF,orthorhombic,"{""system"": ""orthorhombic"", ""scale"": [0.8, 1.0, 1.2], ""optical"": {""transparent"": 1, ""refraction"": 1.5, ""birefringence"": 0.01}}"
Camaraite,NaBa3Fe2+8Ti4(Si2O7)4O4(OH)4F3,"{""Na"": 1.0, ""Ba"": 3.0, ""Fe"": 8.0, ""Ti"": 4.0, ""Si"": 8.0, ""O"": 36.0, ""H"": 4.0, ""F"": 3.0}",1935.01,#556B2F,triclinic,"{""system"": ""triclinic"", ""scale"": [0.7, 1.0, 1.3], ""optical"": {""transparent"": 0, ""refraction"": 0.0, ""birefringence"": 0.0}}"
Camaronesite,Fe3+2(PO3OH)2(SO4)(H2O)4·1-2H2O,"{""Fe"": 2.0, ""P"": 2.0, ""O"": 18.0, ""H"": 14.0, ""S"": 1.0}",507.81,#556B2F,hexagonal,"{""system"": ""hexagonal"", ""scale"": [1.0, 1.0, 1.6], ""optical"": {""transparent"": 0, ""refraction"": 0.0, ""birefringence"": 0.0}}"
Camerolaite,Cu6Al3(OH)18(H2O)2[Sb(OH)6](SO4),"{""Cu"": 6.0, ""Al"": 3.0, ""O"": 30.0, ""H"": 28.0, ""Sb"": 1.0, ""S"": 1.0}",1124.28,#FFFFFF,triclinic,"{""system"": ""triclinic"", ""scale"": [0.7, 1.0, 1.3], ""optical"": {""transparent"": 1, ""refraction"": 1.5, ""birefringence"": 0.01}}"
Camgasite,CaMg(AsO4)(OH)·5H2O,"{""Ca"": 1.0, ""Mg"": 1.0, ""As"": 1.0, ""O"": 10.0, ""H"": 11.0}",310.4,#FFFFFF,monoclinic,"{""system"": ""monoclinic"", ""scale"": [0.7, 1.0, 1.3], ""optical"": {""transparent"": 1, ""refraction"": 1.5, ""birefringence"": 0.01}}"
Caminite,Mg7(SO4)5(OH)4·H2O,"{""Mg"": 7.0, ""S"": 5.0, ""O"": 25.0, ""H"": 6.0}",736.52,#FFFFFF,tetragonal,"{""system"": ""tetragonal"", ""scale"": [1.0, 1.0, 1.4], ""optical"": {""transparent"": 1, ""refraction"": 1.5, ""birefringence"": 0.01}}"
Canaphite,Na2CaP2O7·4H2O,"{""Na"": 2.0, ""Ca"": 1.0, ""P"": 2.0, ""O"": 11.0, ""H"": 8.0}",332.06,#FFFFFF,monoclinic,"{""system"": ""monoclinic"", ""scale"": [0.7, 1.0, 1.3], ""optical"": {""transparent"": 1, ""refraction"": 1.5, ""birefringence"": 0.01}}"
Canasite,K3Na3Ca5Si12O30(OH)4,"{""K"": 3.0, ""Na"": 3.0, ""Ca"": 5.0, ""Si"": 12.0, ""O"": 34.0, ""H"": 4.0}",1271.78,#FFFFFF,monoclinic,"{""system"": ""monoclinic"", ""scale"": [0.7, 1.0, 1.3], ""optical"": {""transparent"": 1, ""refraction"": 1.5, ""birefringence"": 0.01}}"
Canavesite,Mg2(HBO3)(CO3)·5H2O,"{""Mg"": 2.0, ""H"": 11.0, ""B"": 1.0, ""O"": 11.0, ""C"": 1.0}",258.53,#FFFFFF,monoclinic,"{""system"": ""monoclinic"", ""scale"": [0.7, 1.0, 1.3], ""optical"": {""transparent"": 1, ""refraction"": 1.5, ""birefringence"": 0.01}}"
Cancrisilite,Na7(Si7Al5)O24(CO3)·3H2O,"{""Na"": 7.0, ""Si"": 7.0, ""Al"": 5.0, ""O"": 30.0, ""C"": 1.0, ""H"": 6.0}",990.52,#FFFFFF,hexagonal,"{""system"": ""hexagonal"", ""scale"": [1.0, 1.0, 1.6], ""optical"": {""transparent"": 1, ""refraction"": 1.5, ""birefringence"": 0.01}}"
Cannizzarite,Pb8Bi10S23,"{""Pb"": 8.0, ""Bi"": 10.0, ""S"": 23.0}",4484.78,#708090,monoclinic,"{""system"": ""monoclinic"", ""scale"": [0.7, 1.0, 1.3], ""optical"": {""transparent"": 0, ""refraction"": 0.0, ""birefringence"": 0.0}}"
Cannonite,Bi2O(SO4)(OH)2,"{""Bi"": 2.0, ""O"": 7.0, ""S"": 1.0, ""H"": 2.0}",564.04,#FFFFFF,monoclinic,"{""system"": ""monoclinic"", ""scale"": [0.7, 1.0, 1.3], ""optical"": {""transparent"": 1, ""refraction"": 1.5, ""birefringence"": 0.01}}"
Canosioite,Ba2Fe3+(AsO4)2(OH),"{""Ba"": 2.0, ""Fe"": 1.0, ""As"": 2.0, ""O"": 9.0, ""H"": 1.0}",625.36,#556B2F,monoclinic,"{""system"": ""monoclinic"", ""scale"": [0.7, 1.0, 1.3], ""optical"": {""transparent"": 0, ""refraction"": 0.0, ""birefringence"": 0.0}}"
Caoxite,Ca(C2O4)·3H2O,"{""Ca"": 1.0, ""C"": 2.0, ""O"": 7.0, ""H"": 6.0}",182.15,#FFFFFF,triclinic,"{""system"": ""triclinic"", ""scale"": [0.7, 1.0, 1.3], ""optical"": {""transparent"": 1, ""refraction"": 1.5, ""birefringence"": 0.01}}"
Capgaronnite,AgHgClS,"{""Ag"": 1.0, ""Hg"": 1.0, ""Cl"": 1.0, ""S"": 1.0}",375.97,#A9A9A9,orthorhombic,"{""system"": ""orthorhombic"", ""scale"": [0.8, 1.0, 1.2], ""optical"": {""transparent"": 0, ""refraction"": 0.0, ""birefringence"": 0.0}}"
Cappelenite-(Y),BaY6B6Si3O24F2,"{""Ba"": 1.0, ""Y"": 6.0, ""B"": 6.0, ""Si"": 3.0, ""O"": 24.0, ""F"": 2.0}",1241.92,#FFFFFF,hexagonal,"{""system"": ""hexagonal"", ""scale"": [1.0, 1.0, 1.6], ""optical"": {""transparent"": 1, ""refraction"": 1.5, ""birefringence"": 0.01}}"
Capranicaite,KCaNaAl4B4Si2O18,"{""K"": 1.0, ""Ca"": 1.0, ""Na"": 1.0, ""Al"": 4.0, ""B"": 4.0, ""Si"": 2.0, ""O"": 18.0}",597.51,#FFFFFF,monoclinic,"{""system"": ""monoclinic"", ""scale"": [0.7, 1.0, 1.3], ""optical"": {""transparent"": 1, ""refraction"": 1.5, ""birefringence"": 0.01}}"
Caracolite,Na2(Pb2Na)(SO4)3Cl,"{""Na"": 3.0, ""Pb"": 2.0, ""S"": 3.0, ""O"": 12.0, ""Cl"": 1.0}",807.0,#FFFFFF,monoclinic,"{""system"": ""monoclinic"", ""scale"": [0.7, 1.0, 1.3], ""optical"": {""transparent"": 1, ""refraction"": 1.5, ""birefringence"": 0.01}}"
Carboborite,Ca2Mg[B(OH)4]2(CO3)2·4H2O,"{""Ca"": 2.0, ""Mg"": 1.0, ""B"": 2.0, ""O"": 18.0, ""H"": 16.0, ""C"": 2.0}",454.24,#FFFFFF,monoclinic,"{""system"": ""monoclinic"", ""scale"": [0.7, 1.0, 1.3], ""optical"": {""transparent"": 1, ""refraction"": 1.5, ""birefringence"": 0.01}}"
Carbobystrite,Na8(Al6Si6O24)(CO3)·4H2O,"{""Na"": 8.0, ""Al"": 6.0, ""Si"": 6.0, ""O"": 31.0, ""C"": 1.0, ""H"": 8.0}",1030.41,#FFFFFF,hexagonal,"{""system"": ""hexagonal"", ""scale"": [1.0, 1.0, 1.6], ""optical"": {""transparent"": 1, ""refraction"": 1.5, ""birefringence"": 0.01}}"
Carbocalumite,Ca4Al2(OH)12(CO3)·6H2O,"{""Ca"": 4.0, ""Al"": 2.0, ""O"": 21.0, ""H"": 24.0, ""C"": 1.0}",586.48,#FFFFFF,hexagonal,"{""system"": ""hexagonal"", ""scale"": [1.0, 1.0, 1.6], ""optical"": {""transparent"": 1, ""refraction"": 1.5, ""birefringence"": 0.01}}"
Carboferriphoxite,[(NH4)K(H2CO3)][Fe3+(HPO4)(H2PO4)(C2O4)],"{""N"": 1.0, ""H"": 9.0, ""K"": 1.0, ""C"": 3.0, ""O"": 15.0, ""Fe"": 1.0, ""P"": 2.0}",456.0,#556B2F,triclinic,"{""system"": ""triclinic"", ""scale"": [0.7, 1.0, 1.3], ""optical"": {""transparent"": 0, ""refraction"": 0.0, ""birefringence"": 0.0}}"
Carboirite,Fe2+Al2GeO5(OH)2,"{""Fe"": 1.0, ""Al"": 2.0, ""Ge"": 1.0, ""O"": 7.0, ""H"": 2.0}",296.46,#556B2F,triclinic,"{""system"": ""triclinic"", ""scale"": [0.7, 1.0, 1.3], ""optical"": {""transparent"": 0, ""refraction"": 0.0, ""birefringence"": 0.0}}"