name,formula,elements,density,color,crystal,pm_ids,gacha_weight
Chukotkaite,AgPb7Sb5S15,"{""Ag"": 1.0, ""Pb"": 7.0, ""Sb"": 5.0, ""S"": 15.0}",2647.97,#708090,unknown,{33},2.51e-10
Churchite-(Y),Y(PO4)·2H2O,"{""Y"": 1.0, ""P"": 1.0, ""O"": 6.0, ""H"": 4.0}",219.906,#FFFFFF,monoclinic,"{23,48}",1.89964e-07
Chursinite,Hg1+Hg2+(AsO4),"{""Hg"": 2.0, ""As"": 1.0, ""O"": 4.0}",540.098,#808080,monoclinic,{47},1.5015e-07
Chvaleticeite,Mn(SO4)·6H2O,"{""Mn"": 1.0, ""S"": 1.0, ""O"": 10.0, ""H"": 12.0}",259.084,#FFFFFF,monoclinic,{47},3.003e-09
Cianciulliite,Mg2Mn2+Zn2(OH)10·2-4H2O,"{""Mg"": 2.0, ""Mn"": 1.0, ""Zn"": 2.0, ""O"": 14.0, ""H"": 18.0}",476.438,#FFFFFF,monoclinic,"{32,47}",8.721e-09
Cinnabar,HgS,"{""Hg"": 1.0, ""S"": 1.0}",232.65,#A9A9A9,hexagonal,"{6,11,12,33,56}",9.731e-09
Cirrolite,Ca3Al2(PO4)3(OH)3,"{""Ca"": 3.0, ""Al"": 2.0, ""P"": 3.0, ""O"": 15.0, ""H"": 3.0}",510.129,#FFFFFF,unknown,{47},1.5015e-08
Clairite,(NH4)2Fe3+3(SO4)4(OH)3·3H2O,"{""N"": 2.0, ""H"": 17.0, ""Fe"": 3.0, ""S"": 4.0, ""O"": 22.0}",692.903,#556B2F,triclinic,"{47,53}",4.712e-09
Claringbullite,Cu2+4FCl(OH)6,"{""Cu"": 4.0, ""F"": 1.0, ""Cl"": 1.0, ""O"": 6.0, ""H"": 6.0}",410.674,#FFFFFF,hexagonal,"{47,56}",1.1004e-08
Claudetite,As2O3,"{""As"": 2.0, ""O"": 3.0}",197.841,#808080,monoclinic,"{47,55}",1.88029e-07
Clausthalite,PbSe,"{""Pb"": 1.0, ""Se"": 1.0}",286.171,#FFFFFF,cubic,{33},1.2547e-08
Clearcreekite,Hg1+3(CO3)(OH)·2H2O,"{""Hg"": 3.0, ""C"": 1.0, ""O"": 6.0, ""H"": 5.0}",714.815,#FFFFFF,monoclinic,{47},1.5015e-07
Clerite,MnSb2S4,"{""Mn"": 1.0, ""Sb"": 2.0, ""S"": 4.0}",426.698,#A9A9A9,orthorhombic,{33},2.51e-10
Cliffordite,UTe4+3O9,"{""U"": 1.0, ""Te"": 3.0, ""O"": 9.0}",764.821,#ADFF2F,unknown,{47},1.5015e-07
Clinoatacamite,Cu2Cl(OH)3,"{""Cu"": 2.0, ""Cl"": 1.0, ""O"": 3.0, ""H"": 3.0}",213.563,#FFFFFF,monoclinic,{47},1.5015e-07
Clinobehoite,Be(OH)2,"{""Be"": 1.0, ""O"": 2.0, ""H"": 2.0}",43.0262,#FFFFFF,monoclinic,{22},4.0486e-08
Clinobisvanite,Bi(VO4),"{""Bi"": 1.0, ""V"": 1.0, ""O"": 4.0}",323.918,#D2B48C,monoclinic,"{34,47}",1.67881e-07
Clinocervantite,Sb3+Sb5+O4,"{""Sb"": 2.0, ""O"": 4.0}",307.516,#A9A9A9,monoclinic,"{47,55}",1.88029e-07
Clinochalcomenite,CuSe4+O3(H2O)2,"{""Cu"": 1.0, ""Se"": 1.0, ""O"": 5.0, ""H"": 4.0}",226.544,#FFFFFF,monoclinic,{},1e-06
Clinochlore,Mg5Al(AlSi3O10)(OH)8,"{""Mg"": 5.0, ""Al"": 2.0, ""Si"": 3.0, ""O"": 18.0, ""H"": 8.0}",555.79,#FFFFFF,triclinic,"{6,13,26,38,40}",1.265552e-05
Clinoclase,Cu3(AsO4)(OH)3,"{""Cu"": 3.0, ""As"": 1.0, ""O"": 7.0, ""H"": 3.0}",380.577,#FFFFFF,monoclinic,"{47,56}",2.2008e-07
Clinoenstatite,Mg2Si2O6,"{""Mg"": 2.0, ""Si"": 2.0, ""O"": 6.0}",200.774,#FFFFFF,monoclinic,"{4,6,9,36}",4.87046e-07
Clinofergusonite-(Ce),CeNbO4,"{""Ce"": 1.0, ""Nb"": 1.0, ""O"": 4.0}",297.022,#FFFFFF,monoclinic,{34},1.773e-08
Clinofergusonite-(Nd),NdNbO4,"{""Nd"": 1.0, ""Nb"": 1.0, ""O"": 4.0}",301.142,#FFFFFF,monoclinic,{34},1.773e-08
Clinofergusonite-(Y),YNbO4,"{""Y"": 1.0, ""Nb"": 1.0, ""O"": 4.0}",245.808,#FFFFFF,monoclinic,{34},1.773e-08
Clinoferrosilite,Fe2+2Si2O6,"{""Fe"": 2.0, ""Si"": 2.0, ""O"": 6.0}",263.854,#8B4513,monoclinic,{20},4.22222e-07
Clinohedrite,CaZn(SiO4)·H2O,"{""Ca"": 1.0, ""Zn"": 1.0, ""Si"": 1.0, ""O"": 5.0, ""H"": 2.0}",215.554,#FFFFFF,monoclinic,"{32,51}",1.02397e-07
Clinohumite,Mg9(SiO4)4F2,"{""Mg"": 9.0, ""Si"": 4.0, ""O"": 16.0, ""F"": 2.0}",625.065,#FFFFFF,monoclinic,"{7,31,36,40,50,54}",4.81375e-07
Clinojimthompsonite,Mg5Si6O16(OH)2,"{""Mg"": 5.0, ""Si"": 6.0, ""O"": 18.0, ""H"": 2.0}",580.033,#FFFFFF,monoclinic,{38},1.2037e-07
Clinokurchatovite,CaMgB2O5,"{""Ca"": 1.0, ""Mg"": 1.0, ""B"": 2.0, ""O"": 5.0}",165.998,#FFFFFF,monoclinic,"{23,28}",2.758794e-06
Clinometaborite,HBO2,"{""H"": 1.0, ""B"": 1.0, ""O"": 2.0}",43.816,#FFFFFF,monoclinic,{45},2.3585e-08
Clino-oscarkempffite,Ag15Pb6Sb21Bi18S72,"{""Ag"": 15.0, ""Pb"": 6.0, ""Sb"": 21.0, ""Bi"": 18.0, ""S"": 72.0}",11488.17,#708090,monoclinic,{33},2.51e-10
Clinophosinaite,Na3Ca(SiO3)(PO4),"{""Na"": 3.0, ""Ca"": 1.0, ""Si"": 1.0, ""O"": 7.0, ""P"": 1.0}",280.1,#FFFFFF,monoclinic,"{35,47}",1.6392e-08
Clinoptilolite-Ca,Ca3(Si30Al6)O72·20H2O,"{""Ca"": 3.0, ""Si"": 30.0, ""Al"": 6.0, ""O"": 92.0, ""H"": 40.0}",2636.904,#FFFFFF,monoclinic,"{9,10,14,16,23,24,25,48}",3.30071e-06
Clinoptilolite-K,K6(Si30Al6)O72·20H2O,"{""K"": 6.0, ""Si"": 30.0, ""Al"": 6.0, ""O"": 92.0, ""H"": 40.0}",2751.258,#FFFFFF,monoclinic,"{10,16,23,24,48}",3.1482e-06
Clinoptilolite-Na,Na6(Si30Al6)O72·20H2O,"{""Na"": 6.0, ""Si"": 30.0, ""Al"": 6.0, ""O"": 92.0, ""H"": 40.0}",2654.61,#FFFFFF,monoclinic,"{9,10,14,16,23,24,25,48}",6.347519e-06
Clinosafflorite,CoAs2,"{""Co"": 1.0, ""As"": 2.0}",208.777,#4169E1,monoclinic,{33},1.2547e-08
Clinosulphur,S,"{""S"": 1.0}",32.06,#A9A9A9,monoclinic,"{45,50,54}",2.059e-09
Clinotobermorite,Ca4Si6O17(H2O)2·(Ca·3H2O),"{""Ca"": 7.0, ""Si"": 6.0, ""O"": 28.0, ""H"": 22.0}",919.204,#FFFFFF,monoclinic,"{13,31}",2.30547e-07
Clinoungemachite,K3Na8Fe3+(SO4)6(OH)2·10H2O,"{""K"": 3.0, ""Na"": 8.0, ""Fe"": 1.0, ""S"": 6.0, ""O"": 36.0, ""H"": 22.0}",1147.559,#556B2F,unknown,"{46,47}",6.849e-09
Clinozoisite,Ca2Al3[Si2O7][SiO4]O(OH),"{""Ca"": 2.0, ""Al"": 3.0, ""Si"": 3.0, ""O"": 13.0, ""H"": 1.0}",454.352,#FFFFFF,monoclinic,"{22,31,39,40,43}",1.3945012e-05
Clintonite,CaAlMg2(SiAl3O10)(OH)2,"{""Ca"": 1.0, ""Al"": 4.0, ""Mg"": 2.0, ""Si"": 1.0, ""O"": 12.0, ""H"": 2.0}",418.705,#FFFFFF,monoclinic,"{6,31,40,51}",1.2427199e-05
Clogauite,PbBi4Te4S3,"{""Pb"": 1.0, ""Bi"": 4.0, ""Te"": 4.0, ""S"": 3.0}",1649.7,#708090,hexagonal,{},2e-08
Cloudite,BaFe3+3(PO4)(SO4)(OH)6,"{""Ba"": 1.0, ""Fe"": 3.0, ""P"": 1.0, ""O"": 14.0, ""S"": 1.0, ""H"": 6.0}",597.933,#556B2F,hexagonal,{},2e-08
Coalingite,Mg10Fe3+2(CO3)(OH)24·2H2O,"{""Mg"": 10.0, ""Fe"": 2.0, ""C"": 1.0, ""O"": 29.0, ""H"": 28.0}",858.946,#556B2F,hexagonal,"{38,47,50,54,57}",5.26189e-07
Cobaltarthurite,CoFe3+2(AsO4)2(OH)2·4H2O,"{""Co"": 1.0, ""Fe"": 2.0, ""As"": 2.0, ""O"": 14.0, ""H"": 10.0}",554.533,#556B2F,monoclinic,{47},1.5015e-07
Cobaltaustinite,CaCo(AsO4)(OH),"{""Ca"": 1.0, ""Co"": 1.0, ""As"": 1.0, ""O"": 5.0, ""H"": 1.0}",254.936,#FFFFFF,orthorhombic,{47},1.5015e-07
Cobaltite,CoAsS,"{""Co"": 1.0, ""As"": 1.0, ""S"": 1.0}",165.915,#FFD700,cubic,"{33,37}",1.732e-09
Cobaltkieserite,Co(SO4)·H2O,"{""Co"": 1.0, ""S"": 1.0, ""O"": 5.0, ""H"": 2.0}",173.004,#FFFFFF,monoclinic,{47},3.003e-09
Cobaltkoritnigite,Co(AsO3OH)·H2O,"{""Co"": 1.0, ""As"": 1.0, ""O"": 5.0, ""H"": 3.0}",216.874,#FFFFFF,triclinic,"{47,55}",1.88029e-07
Cobaltlotharmeyerite,CaCo2(AsO4)2·2H2O,"{""Ca"": 1.0, ""Co"": 2.0, ""As"": 2.0, ""O"": 10.0, ""H"": 4.0}",471.81,#FFFFFF,monoclinic,{47},1.5015e-07
Cobaltoblodite,Na2Co(SO4)2·4H2O,"{""Na"": 2.0, ""Co"": 1.0, ""S"": 2.0, ""O"": 12.0, ""H"": 8.0}",369.085,#FFFFFF,monoclinic,"{47,55}",3.761e-09
Cobaltomenite,Co(Se4+O3)·2H2O,"{""Co"": 1.0, ""Se"": 1.0, ""O"": 5.0, ""H"": 4.0}",221.931,#FFFFFF,monoclinic,{47},1.5015e-07
Cobaltpentlandite,Co9S8,"{""Co"": 9.0, ""S"": 8.0}",786.877,#A9A9A9,cubic,"{12,15,33}",8.051e-09
Cobalttsumcorite,PbCo2(AsO4)2·2H2O,"{""Pb"": 1.0, ""Co"": 2.0, ""As"": 2.0, ""O"": 10.0, ""H"": 4.0}",638.932,#FFFFFF,monoclinic,{47},1.5015e-07
Coccinite,HgI2,"{""Hg"": 1.0, ""I"": 2.0}",454.39,#FFFFFF,tetragonal,"{33,47,50,54}",2.42062e-07
Cochromite,CoCr2O4,"{""Co"": 1.0, ""Cr"": 2.0, ""O"": 4.0}",226.921,#4169E1,cubic,"{8,40}",1.5856002e-05
Coconinoite,Fe3+2Al2(UO2)2(PO4)4(SO4)(OH)2·20H2O,"{""Fe"": 2.0, ""Al"": 2.0, ""U"": 2.0, ""O"": 46.0, ""P"": 4.0, ""S"": 1.0, ""H"": 42.0}",1575.96,#556B2F,monoclinic,{47},3.003e-09
Coesite,SiO2,"{""Si"": 1.0, ""O"": 2.0}",60.083,#FFFFFF,monoclinic,"{6,30,36,38,39}",2.1325235e-05
Cohenite,CFe3,"{""C"": 1.0, ""Fe"": 3.0}",179.546,#8B4513,orthorhombic,"{4,5,6,8,33,50,54}",6.911454e-06
Colchesterite,Bi3+2Mo6+2O9,"{""Bi"": 2.0, ""Mo"": 2.0, ""O"": 9.0}",753.851,#D2B48C,monoclinic,{},1e-06
Coldwellite,Pd3Ag2S,"{""Pd"": 3.0, ""Ag"": 2.0, ""S"": 1.0}",567.06,#A9A9A9,unknown,{33},2.51e-10
Colemanite,CaB3O4(OH)3·H2O,"{""Ca"": 1.0, ""B"": 3.0, ""O"": 8.0, ""H"": 5.0}",205.54,#FFFFFF,monoclinic,{25},4.7619e-08
Colimaite,K3VS4,"{""K"": 3.0, ""V"": 1.0, ""S"": 4.0}",296.476,#A9A9A9,orthorhombic,{11},5.556e-09
Colinowensite,BaCuSi2O6,"{""Ba"": 1.0, ""Cu"": 1.0, ""Si"": 2.0, ""O"": 6.0}",353.04,#FFFFFF,tetragonal,"{31,32}",5.2362e-08
Collinsite,Ca2Mg(PO4)2·2H2O,"{""Ca"": 2.0, ""Mg"": 1.0, ""P"": 2.0, ""O"": 10.0, ""H"": 4.0}",330.431,#FFFFFF,triclinic,{47},1.5015e-08
Colomeraite,NaTi3+Si2O6,"{""Na"": 1.0, ""Ti"": 1.0, ""Si"": 2.0, ""O"": 6.0}",223.021,#FFFFFF,monoclinic,{5},3.1915e-08
Coloradoite,HgTe,"{""Hg"": 1.0, ""Te"": 1.0}",328.19,#FFFFFF,cubic,{33},1.2547e-08
Colquiriite,CaLiAlF6,"{""Ca"": 1.0, ""Li"": 1.0, ""Al"": 1.0, ""F"": 6.0}",187.988,#FFFFFF,hexagonal,"{23,34}",8.8826e-08
Columbite-(Fe),Fe2+Nb2O6,"{""Fe"": 1.0, ""Nb"": 2.0, ""O"": 6.0}",337.651,#8B4513,orthorhombic,"{23,34}",1.776524e-06
Columbite-(Mg),MgNb2O6,"{""Mg"": 1.0, ""Nb"": 2.0, ""O"": 6.0}",306.111,#FFFFFF,orthorhombic,{34},1.773e-08
Columbite-(Mn),Mn2+Nb2O6,"{""Mn"": 1.0, ""Nb"": 2.0, ""O"": 6.0}",336.744,#FFB6C1,orthorhombic,"{26,34}",2.887e-09
Colusite,Cu13VAs3S16,"{""Cu"": 13.0, ""V"": 1.0, ""As"": 3.0, ""S"": 16.0}",1614.766,#FFD700,cubic,{33},2.51e-10
Comblainite,Ni4Co3+2(OH)12(CO3)·3H2O,"{""Ni"": 4.0, ""Co"": 2.0, ""O"": 18.0, ""H"": 18.0, ""C"": 1.0}",670.775,#FFFFFF,hexagonal,{47},1.5015e-07
Compreignacite,K2(UO2)6O4(OH)6·7H2O,"{""K"": 2.0, ""U"": 6.0, ""O"": 29.0, ""H"": 20.0}",1990.507,#FFFFFF,orthorhombic,{47},1.5015e-07
Congolite,Fe2+3B7O13Cl,"{""Fe"": 3.0, ""B"": 7.0, ""O"": 13.0, ""Cl"": 1.0}",486.642,#556B2F,hexagonal,{25},4.7619e-08
Conichalcite,CaCu(AsO4)(OH),"{""Ca"": 1.0, ""Cu"": 1.0, ""As"": 1.0, ""O"": 5.0, ""H"": 1.0}",259.549,#FFFFFF,orthorhombic,{47},1.5015e-07
Connellite,Cu36(SO4)(OH)62Cl8·6H2O,"{""Cu"": 36.0, ""S"": 1.0, ""O"": 72.0, ""H"": 74.0, ""Cl"": 8.0}",3829.836,#FFFFFF,hexagonal,"{38,47,53}",6.564e-09
Cooperite,PtS,"{""Pt"": 1.0, ""S"": 1.0}",227.14,#A9A9A9,tetragonal,"{12,26,33,37}",4.083e-09
Coparsite,Cu2+4O2(AsO4)Cl,"{""Cu"": 4.0, ""O"": 6.0, ""As"": 1.0, ""Cl"": 1.0}",460.55,#FFFFFF,orthorhombic,{45},2.3585e-08
Copiapite,Fe2+Fe3+4(SO4)6(OH)2·20H2O,"{""Fe"": 5.0, ""S"": 6.0, ""O"": 46.0, ""H"": 42.0}",1249.875,#556B2F,triclinic,"{45,47,50,54}",5.062e-09
Copper,Cu,"{""Cu"": 1.0}",63.546,#00BFFF,cubic,"{5,6,8,12,33,36,38,45,47,49,50,51,54}",7.284895e-06
Coquimbite,AlFe3(SO4)6(H2O)12·6H2O,"{""Al"": 1.0, ""Fe"": 3.0, ""S"": 6.0, ""O"": 42.0, ""H"": 36.0}",1095.123,#556B2F,hexagonal,"{45,47,50,54,55}",5.82e-09
Coralloite,Mn2+Mn3+2(AsO4)2(OH)2·4H2O,"{""Mn"": 3.0, ""As"": 2.0, ""O"": 14.0, ""H"": 10.0}",548.724,#FFFFFF,triclinic,"{22,47}",9.532e-09
Corderoite,Hg3S2Cl2,"{""Hg"": 3.0, ""S"": 2.0, ""Cl"": 2.0}",736.79,#A9A9A9,cubic,"{25,47}",3.955e-09
Cordierite,Mg2Al4Si5O18,"{""Mg"": 2.0, ""Al"": 4.0, ""Si"": 5.0, ""O"": 18.0}",584.945,#FFFFFF,orthorhombic,"{6,8,10,19,26,34,41,50,54}",5.5017276e-05
Cordylite-(La),NaCaBa2La3Sr(CO3)8F2,"{""Na"": 1.0, ""Ca"": 1.0, ""Ba"": 2.0, ""La"": 3.0, ""Sr"": 1.0, ""C"": 8.0, ""O"": 24.0, ""F"": 2.0}",1360.138,#FFFFFF,hexagonal,{35},6.89e-10
Corkite,PbFe3+3(SO4)(PO4)(OH)6,"{""Pb"": 1.0, ""Fe"": 3.0, ""S"": 1.0, ""O"": 14.0, ""P"": 1.0, ""H"": 6.0}",667.803,#556B2F,hexagonal,{47},3.003e-09
Cornetite,Cu3(PO4)(OH)3,"{""Cu"": 3.0, ""P"": 1.0, ""O"": 7.0, ""H"": 3.0}",336.629,#FFFFFF,orthorhombic,{47},1.5015e-08
Cornubite,Cu5(AsO4)2(OH)4,"{""Cu"": 5.0, ""As"": 2.0, ""O"": 12.0, ""H"": 4.0}",663.594,#FFFFFF,triclinic,{47},1.5015e-07
Cornwallite,Cu5(AsO4)2(OH)4,"{""Cu"": 5.0, ""As"": 2.0, ""O"": 12.0, ""H"": 4.0}",663.594,#FFFFFF,monoclinic,{47},1.5015e-07
Coronadite,Pb(Mn4+6Mn3+2)O16,"{""Pb"": 1.0, ""Mn"": 8.0, ""O"": 16.0}",902.688,#FFB6C1,monoclinic,"{14,32,47}",1.6918e-08
Correianevesite,Fe2+Mn2+2(PO4)2·3H2O,"{""Fe"": 1.0, ""Mn"": 2.0, ""P"": 2.0, ""O"": 11.0, ""H"": 6.0}",409.706,#556B2F,orthorhombic,"{34,47}",8.394e-09
Cortesognoite,CaV2Si2O7(OH)2·H2O,"{""Ca"": 1.0, ""V"": 2.0, ""Si"": 2.0, ""O"": 10.0, ""H"": 4.0}",362.154,#FFFFFF,orthorhombic,{47},1.5015e-07
Corundum,Al2O3,"{""Al"": 2.0, ""O"": 3.0}",101.961,#FFFFFF,hexagonal,"{1,3,5,6,7,23,26,31,35,36,38,39,40,41,48,50,51,54}",8.2692741e-05
Cosalite,Pb2Bi2S5,"{""Pb"": 2.0, ""Bi"": 2.0, ""S"": 5.0}",992.66,#708090,orthorhombic,{33},2.51e-10
Coskrenite-(Ce),Ce2(SO4)2(C2O4)·8H2O,"{""Ce"": 2.0, ""S"": 2.0, ""O"": 20.0, ""C"": 2.0, ""H"": 16.0}",704.49,#FFFFFF,triclinic,{47},3.003e-09
Costibite,CoSbS,"{""Co"": 1.0, ""Sb"": 1.0, ""S"": 1.0}",212.753,#A9A9A9,orthorhombic,{33},2.51e-10
Cotunnite,PbCl2,"{""Pb"": 1.0, ""Cl"": 2.0}",278.1,#FFFFFF,orthorhombic,"{45,47,50,54,56,57}",5.27112e-07
Coulsonite,Fe2+V3+2O4,"{""Fe"": 1.0, ""V"": 2.0, ""O"": 4.0}",221.725,#8B4513,cubic,"{6,40}",9.453169e-06
Cousinite,MgU4+2(MoO4)2(OH)6·2H2O (?),"{""Mg"": 1.0, ""U"": 2.0, ""Mo"": 2.0, ""O"": 16.0, ""H"": 10.0}",958.329,#FFFFFF,unknown,{47},1.5015e-07
Covellite,CuS,"{""Cu"": 1.0, ""S"": 1.0}",95.606,#A9A9A9,hexagonal,"{6,12,15,33,47,50,53,54}",1.5327e-08
Cowlesite,Ca(Al2Si3)O10·5-6H2O,"{""Ca"": 1.0, ""Al"": 2.0, ""Si"": 3.0, ""O"": 16.0, ""H"": 12.0}",446.377,#FFFFFF,orthorhombic,{22},5.2632e-08
Coyoteite,NaFe3S5·2H2O,"{""Na"": 1.0, ""Fe"": 3.0, ""S"": 5.0, ""H"": 4.0, ""O"": 2.0}",386.855,#556B2F,triclinic,"{33,35}",5.26e-10
Crandallite,CaAl3(PO4)(PO3OH)(OH)6,"{""Ca"": 1.0, ""Al"": 3.0, ""P"": 2.0, ""O"": 14.0, ""H"": 7.0}",414.014,#FFFFFF,hexagonal,"{21,24,34,36,40}",9.7182e-07
Cranswickite,Mg(SO4)·4H2O,"{""Mg"": 1.0, ""S"": 1.0, ""O"": 8.0, ""H"": 8.0}",192.421,#FFFFFF,triclinic,"{40,46}",1.91934e-07
Crawfordite,Na3Sr(PO4)(CO3),"{""Na"": 3.0, ""Sr"": 1.0, ""P"": 1.0, ""O"": 7.0, ""C"": 1.0}",311.568,#FFFFFF,monoclinic,"{35,36,50}",8.477e-09
Creaseyite,Cu2Pb2Fe3+2Si5O17·6H2O,"{""Cu"": 2.0, ""Pb"": 2.0, ""Fe"": 2.0, ""Si"": 5.0, ""O"": 23.0, ""H"": 12.0}",1173.68,#556B2F,orthorhombic,{47},1.5015e-07
Crednerite,CuMnO2,"{""Cu"": 1.0, ""Mn"": 1.0, ""O"": 2.0}",150.482,#00BFFF,monoclinic,{33},6.27e-10
Creedite,Ca3Al2(SO4)(OH)2F8·2H2O,"{""Ca"": 3.0, ""Al"": 2.0, ""S"": 1.0, ""O"": 8.0, ""H"": 6.0, ""F"": 8.0}",492.282,#FFFFFF,monoclinic,"{23,45,56}",3.7046e-08
Criddleite,Ag2Au3TlSb10S10,"{""Ag"": 2.0, ""Au"": 3.0, ""Tl"": 1.0, ""Sb"": 10.0, ""S"": 10.0}",2549.23,#A9A9A9,monoclinic,"{23,33}",3.5427e-08
Crimsonite,PbFe3+2(PO4)2(OH)2,"{""Pb"": 1.0, ""Fe"": 2.0, ""P"": 2.0, ""O"": 10.0, ""H"": 2.0}",542.844,#556B2F,orthorhombic,{47},1.5015e-08
Cristobalite,SiO2,"{""Si"": 1.0, ""O"": 2.0}",60.083,#FFFFFF,orthorhombic,"{4,5,8,9,10,20,50,51,54}",0.000165492393
Crocobelonite,CaFe3+2O(PO4)2,"{""Ca"": 1.0, ""Fe"": 2.0, ""O"": 9.0, ""P"": 2.0}",357.707,#556B2F,orthorhombic,{21},1.2658e-08
Crocoite,Pb(CrO4),"{""Pb"": 1.0, ""Cr"": 1.0, ""O"": 4.0}",323.192,#228B22,monoclinic,"{47,55}",1.88029e-07
Crookesite,Cu7TlSe4,"{""Cu"": 7.0, ""Tl"": 1.0, ""Se"": 4.0}",965.086,#00BFFF,tetragonal,"{23,33}",1.771341e-06
Cryobostryxite,KZnCl3·2H2O,"{""K"": 1.0, ""Zn"": 1.0, ""Cl"": 3.0, ""H"": 4.0, ""O"": 2.0}",246.858,#FFFFFF,monoclinic,{45},2.3585e-08
Cryolite,Na2NaAlF6,"{""Na"": 3.0, ""Al"": 1.0, ""F"": 6.0}",209.94,#FFFFFF,monoclinic,"{24,34,35,36,45}",1.1229e-08
Cryolithionite,Na3Al2(LiF4)3,"{""Na"": 3.0, ""Al"": 2.0, ""Li"": 3.0, ""F"": 12.0}",371.73,#FFFFFF,cubic,{34},8.87e-10
Cryptochalcite,K2Cu5O(SO4)5,"{""K"": 2.0, ""Cu"": 5.0, ""O"": 21.0, ""S"": 5.0}",892.205,#FFFFFF,triclinic,{45},4.72e-10
Cryptohalite,(NH4)2SiF6,"{""N"": 2.0, ""H"": 8.0, ""Si"": 1.0, ""F"": 6.0}",178.151,#FFFFFF,cubic,"{45,50,54}",5.147e-09
Cryptomelane,K(Mn4+7Mn3+)O16,"{""K"": 1.0, ""Mn"": 8.0, ""O"": 16.0}",734.586,#FFB6C1,tetragonal,"{32,47}",8.721e-09
Cryptophyllite,K2Ca[Si4O10]·5H2O,"{""K"": 2.0, ""Ca"": 1.0, ""Si"": 4.0, ""O"": 15.0, ""H"": 10.0}",480.679,#FFFFFF,monoclinic,{35},1.7906e-08
Cualstibite,Cu2Al(OH)6[Sb(OH)6],"{""Cu"": 2.0, ""Al"": 1.0, ""O"": 12.0, ""H"": 12.0, ""Sb"": 1.0}",479.918,#FFFFFF,hexagonal,"{47,57}",3.54232e-07
Cubanite,CuFe2S3,"{""Cu"": 1.0, ""Fe"": 2.0, ""S"": 3.0}",271.416,#DAA520,orthorhombic,"{6,33}",1.227e-09
Cuboargyrite,AgSbS2,"{""Ag"": 1.0, ""Sb"": 1.0, ""S"": 2.0}",293.75,#A9A9A9,cubic,{33},2.51e-10
Cubo-ice,H2O,"{""H"": 2.0, ""O"": 1.0}",18.015,#FFFFFF,cubic,{36},9.9656e-08
Cubothioplumbite,[Pb4(OH)4]Pb(S2O3)3,"{""Pb"": 5.0, ""O"": 13.0, ""H"": 4.0, ""S"": 6.0}",1440.379,#FFFFFF,cubic,{47},3.003e-09
Cumengeite,Pb21Cu20Cl42(OH)40·6H2O,"{""Pb"": 21.0, ""Cu"": 20.0, ""Cl"": 42.0, ""O"": 46.0, ""H"": 52.0}",7899.39,#FFFFFF,tetragonal,"{45,47,56}",2.43665e-07
Cupalite,CuAl,"{""Cu"": 1.0, ""Al"": 1.0}",90.528,#00BFFF,orthorhombic,{6},4.878e-08
Cuprite,Cu2O,"{""Cu"": 2.0, ""O"": 1.0}",143.091,#00BFFF,cubic,"{45,47,50,54}",2.531e-07
Cuproauride,Cu3Au,"{""Cu"": 3.0, ""Au"": 1.0}",387.608,#00BFFF,unknown,"{33,38}",1.0514e-07
Cuprobismutite,Cu8AgBi13S24,"{""Cu"": 8.0, ""Ag"": 1.0, ""Bi"": 13.0, ""S"": 24.0}",4102.418,#A9A9A9,monoclinic,{33},2.51e-10
Cuprocherokeeite,[Pb8Zn3Cu2+(OH)16](SO4)4·4H2O,"{""Pb"": 8.0, ""Zn"": 3.0, ""Cu"": 1.0, ""O"": 36.0, ""H"": 24.0, ""S"": 4.0}",2645.682,#FFFFFF,monoclinic,{},2e-08
Cuprocopiapite,Cu2+Fe3+4(SO4)6(OH)2·20H2O,"{""Cu"": 1.0, ""Fe"": 4.0, ""S"": 6.0, ""O"": 46.0, ""H"": 42.0}",1257.576,#556B2F,unknown,{47},3.003e-09
Cuprodobrovolskyite,Na4Cu(SO4)3,"{""Na"": 4.0, ""Cu"": 1.0, ""S"": 3.0, ""O"": 12.0}",443.674,#FFFFFF,hexagonal,{},2e-08
Cuprodongchuanite,Pb4CuZn2(PO4)4(OH)2,"{""Pb"": 4.0, ""Cu"": 1.0, ""Zn"": 2.0, ""P"": 4.0, ""O"": 18.0, ""H"": 2.0}",1437.0,#FFFFFF,triclinic,{47},1.5015e-08
Cuproiridsite,Cu(Ir3+Ir4+)S4,"{""Cu"": 1.0, ""Ir"": 2.0, ""S"": 4.0}",576.226,#A9A9A9,cubic,"{12,26,33,37}",4.083e-09
Cuprokalininite,Cu(Cr3+Cr4+)S4,"{""Cu"": 1.0, ""Cr"": 2.0, ""S"": 4.0}",295.778,#A9A9A9,cubic,{40},1.88088e-07
Cupromakopavonite,Cu8Pb4Ag3Bi19S38,"{""Cu"": 8.0, ""Pb"": 4.0, ""Ag"": 3.0, ""Bi"": 19.0, ""S"": 38.0}",6849.678,#708090,monoclinic,{33},2.51e-10
Cupromakovickyite,Cu4AgPb2Bi9S18,"{""Cu"": 4.0, ""Ag"": 1.0, ""Pb"": 2.0, ""Bi"": 9.0, ""S"": 18.0}",3234.354,#708090,monoclinic,{33},2.51e-10
Cupromolybdite,Cu2+3O(Mo6+O4)2,"{""Cu"": 3.0, ""O"": 9.0, ""Mo"": 2.0}",526.529,#00BFFF,orthorhombic,{45},2.3585e-08
Cuproneyite,Cu7Pb27Bi25S68,"{""Cu"": 7.0, ""Pb"": 27.0, ""Bi"": 25.0, ""S"": 68.0}",13443.802,#708090,monoclinic,{33},2.51e-10
Cupropearceite,[Cu6As2S7][Ag9CuS4],"{""Cu"": 7.0, ""As"": 2.0, ""S"": 11.0, ""Ag"": 9.0}",1918.156,#FFD700,hexagonal,{33},2.51e-10
Cupropolybasite,[Cu6Sb2S7][Ag9CuS4],"{""Cu"": 7.0, ""Sb"": 2.0, ""S"": 11.0, ""Ag"": 9.0}",2011.832,#A9A9A9,hexagonal,{33},2.51e-10
Cuprorivaite,CaCuSi4O10,"{""Ca"": 1.0, ""Cu"": 1.0, ""Si"": 4.0, ""O"": 10.0}",375.954,#FFFFFF,tetragonal,"{9,31,51}",1.84955e-07
Cuprosenandorite,Ag16Cu8Pb24Sb72S144,"{""Ag"": 16.0, ""Cu"": 8.0, ""Pb"": 24.0, ""Sb"": 72.0, ""S"": 144.0}",20590.448,#708090,orthorhombic,{},2e-08
Cuprosklodowskite,Cu(UO2)2(SiO3OH)2·6H2O,"{""Cu"": 1.0, ""U"": 2.0, ""O"": 18.0, ""Si"": 2.0, ""H"": 14.0}",897.87,#FFFFFF,triclinic,{47},1.5015e-07
Cuprospinel,Cu2+Fe3+2O4,"{""Cu"": 1.0, ""Fe"": 2.0, ""O"": 4.0}",239.232,#00BFFF,cubic,"{47,55}",1.88029e-07
Cuprotungstite,Cu2+3(WO4)2(OH)2,"{""Cu"": 3.0, ""W"": 2.0, ""O"": 10.0, ""H"": 2.0}",720.324,#FFFFFF,tetragonal,{47},1.5015e-07
Cuprozheshengite,Pb4CuZn2(AsO4)2(PO4)2(OH)2,"{""Pb"": 4.0, ""Cu"": 1.0, ""Zn"": 2.0, ""As"": 2.0, ""O"": 18.0, ""P"": 2.0, ""H"": 2.0}",1524.896,#FFFFFF,triclinic,{47},1.5015e-08
Curienite,Pb(UO2)2(VO4)2·5H2O,"{""Pb"": 1.0, ""U"": 2.0, ""O"": 17.0, ""V"": 2.0, ""H"": 10.0}",1067.207,#FFFFFF,orthorhombic,{47},1.5015e-07
Currierite,Na4Ca3MgAl4(AsO3OH)12·9H2O,"{""Na"": 4.0, ""Ca"": 3.0, ""Mg"": 1.0, ""Al"": 4.0, ""As"": 12.0, ""O"": 57.0, ""H"": 30.0}",2185.674,#FFFFFF,hexagonal,{47},1.5015e-07
Cuspidine,Ca8(Si2O7)2F4,"{""Ca"": 8.0, ""Si"": 4.0, ""O"": 14.0, ""F"": 4.0}",732.942,#FFFFFF,monoclinic,"{31,50,54}",5.373e-09
Cuyaite,Ca2Mn3+As3+14O24Cl,"{""Ca"": 2.0, ""Mn"": 1.0, ""As"": 14.0, ""O"": 24.0, ""Cl"": 1.0}",1603.428,#FFFFFF,monoclinic,{47},7.508e-09
Cuzticite,Fe3+2Te6+O6·3H2O,"{""Fe"": 2.0, ""Te"": 1.0, ""O"": 9.0, ""H"": 6.0}",389.329,#556B2F,hexagonal,{47},1.5015e-07