name,formula,elements,density,color,crystal,pm_ids,gacha_weight
Humberstonite,K3Na7Mg2(SO4)6(NO3)2·6H2O,"{""K"": 3.0, ""Na"": 7.0, ""Mg"": 2.0, ""S"": 6.0, ""O"": 36.0, ""N"": 2.0, ""H"": 12.0}",1135.268,#FFFFFF,hexagonal,"{25,47}",2208.0
Humboldtine,Fe2+(C2O4)·2H2O,"{""Fe"": 1.0, ""C"": 2.0, ""O"": 6.0, ""H"": 4.0}",179.893,#556B2F,monoclinic,"{34,50}",837.0
Humite,Mg7(SiO4)3F2,"{""Mg"": 7.0, ""Si"": 3.0, ""O"": 12.0, ""F"": 2.0}",484.374,#FFFFFF,orthorhombic,"{7,31,36,40}",1089.0
Hummerite,KMgV5+5O14·8H2O,"{""K"": 1.0, ""Mg"": 1.0, ""V"": 5.0, ""O"": 22.0, ""H"": 16.0}",686.219,#FFFFFF,triclinic,{47},1998.0
Hunchunite,Au2Pb,"{""Au"": 2.0, ""Pb"": 1.0}",601.14,#FFD700,cubic,"{26,40}",569.0
Hungchaoite,MgB4O5(OH)4·7H2O,"{""Mg"": 1.0, ""B"": 4.0, ""O"": 16.0, ""H"": 18.0}",341.673,#FFFFFF,triclinic,{25},210.0
Huntingdonite,Pb19Sb16As6S51Cl2,"{""Pb"": 19.0, ""Sb"": 16.0, ""As"": 6.0, ""S"": 51.0, ""Cl"": 2.0}",8040.452,#708090,triclinic,{},1.0
Huntite,CaMg3(CO3)4,"{""Ca"": 1.0, ""Mg"": 3.0, ""C"": 4.0, ""O"": 12.0}",353.025,#FFFFFF,hexagonal,"{13,21,23,25,47,50,54}",3259.0
Hurlbutite,CaBe2(PO4)2,"{""Ca"": 1.0, ""Be"": 2.0, ""P"": 2.0, ""O"": 8.0}",248.0424,#FFFFFF,monoclinic,"{19,34}",707.0
Hutcheonite,Ca3Ti2(SiAl2)O12,"{""Ca"": 3.0, ""Ti"": 2.0, ""Si"": 1.0, ""Al"": 2.0, ""O"": 12.0}",490.005,#FFFFFF,cubic,{6},205.0
Hutchinsonite,TlPbAs5S9,"{""Tl"": 1.0, ""Pb"": 1.0, ""As"": 5.0, ""S"": 9.0}",1074.73,#708090,orthorhombic,"{23,33}",1195.0
Huttonite,Th(SiO4),"{""Th"": 1.0, ""Si"": 1.0, ""O"": 4.0}",324.121,#FFFFFF,monoclinic,"{26,34}",814.0
Hyblerite,Pb2+4Bi3+2(SO4)2(CO3)O4,"{""Pb"": 4.0, ""Bi"": 2.0, ""S"": 2.0, ""O"": 15.0, ""C"": 1.0}",1562.876,#FFFFFF,orthorhombic,{},1.0
Hydrobasaluminite,Al4(SO4)(OH)10·15H2O,"{""Al"": 4.0, ""S"": 1.0, ""O"": 29.0, ""H"": 40.0}",644.279,#FFFFFF,monoclinic,"{47,50,54}",2505.0
Hydroboracite,CaMg[B3O4(OH)3]2·3H2O,"{""Ca"": 1.0, ""Mg"": 1.0, ""B"": 6.0, ""O"": 17.0, ""H"": 12.0}",413.322,#FFFFFF,monoclinic,"{25,47}",2208.0
Hydrocerussite,Pb3(CO3)2(OH)2,"{""Pb"": 3.0, ""C"": 2.0, ""O"": 8.0, ""H"": 2.0}",775.63,#FFFFFF,hexagonal,"{47,49,53}",2192.0
Hydrochlorborite,Ca2B3O3(OH)4·BO(OH)3Cl·7H2O,"{""Ca"": 2.0, ""B"": 4.0, ""O"": 18.0, ""H"": 21.0, ""Cl"": 1.0}",467.996,#FFFFFF,monoclinic,{25},210.0
Hydrodelhayelite,KCa2(Si7Al)O17(OH)2·6H2O,"{""K"": 1.0, ""Ca"": 2.0, ""Si"": 7.0, ""Al"": 1.0, ""O"": 25.0, ""H"": 14.0}",756.918,#FFFFFF,orthorhombic,{47},1998.0
Hydrodresserite,BaAl2(CO3)2(OH)4·3H2O,"{""Ba"": 1.0, ""Al"": 2.0, ""C"": 2.0, ""O"": 13.0, ""H"": 10.0}",433.383,#FFFFFF,triclinic,{31},356.0
Hydroglauberite,Na10Ca3(SO4)8·6H2O,"{""Na"": 10.0, ""Ca"": 3.0, ""S"": 8.0, ""O"": 38.0, ""H"": 12.0}",1226.672,#FFFFFF,unknown,{47},1998.0
Hydrohalite,NaCl·2H2O,"{""Na"": 1.0, ""Cl"": 1.0, ""H"": 4.0, ""O"": 2.0}",94.47,#FFFFFF,monoclinic,{18},4.0
Hydrohalloysite,Al2Si2O5(OH)4·2H2O,"{""Al"": 2.0, ""Si"": 2.0, ""O"": 11.0, ""H"": 8.0}",294.187,#FFFFFF,unknown,"{16,21,22,24,47,48}",2552.0
Hydromagnesite,Mg5(CO3)4(OH)2·4H2O,"{""Mg"": 5.0, ""C"": 4.0, ""O"": 18.0, ""H"": 10.0}",467.631,#FFFFFF,monoclinic,"{13,47,50,54,55}",2836.0
Hydroniumjarosite,(H3O)Fe3+3(SO4)2(OH)6,"{""H"": 9.0, ""O"": 15.0, ""Fe"": 3.0, ""S"": 2.0}",480.712,#556B2F,hexagonal,"{47,55}",2262.0
Hydroniumpharmacosiderite,(H3O)Fe3+4(AsO4)3(OH)4·4H2O,"{""H"": 15.0, ""O"": 21.0, ""Fe"": 4.0, ""As"": 3.0}",799.245,#556B2F,cubic,{47},1998.0
Hydronovacekite,Mg(UO2)2(AsO4)2·12H2O,"{""Mg"": 1.0, ""U"": 2.0, ""O"": 24.0, ""As"": 2.0, ""H"": 24.0}",1058.377,#FFFFFF,triclinic,{47},1998.0
Hydropascoite,Ca3(V10O28)·24H2O,"{""Ca"": 3.0, ""V"": 10.0, ""O"": 52.0, ""H"": 48.0}",1509.986,#FFFFFF,triclinic,"{47,55}",2262.0
Hydrotalcite,Mg6Al2(OH)16(CO3)(H2O)4,"{""Mg"": 6.0, ""Al"": 2.0, ""O"": 23.0, ""H"": 24.0, ""C"": 1.0}",603.974,#FFFFFF,hexagonal,{13},67.0
Hydroterskite,Na2ZrSi6O12(OH)6,"{""Na"": 2.0, ""Zr"": 1.0, ""Si"": 6.0, ""O"": 18.0, ""H"": 6.0}",599.744,#FFFFFF,orthorhombic,{35},726.0
Hydrotungstite,WO2(OH)2·H2O,"{""W"": 1.0, ""O"": 5.0, ""H"": 4.0}",267.867,#FFFFFF,monoclinic,{47},1998.0
Hydroxylapatite,Ca5(PO4)3OH,"{""Ca"": 5.0, ""P"": 3.0, ""O"": 13.0, ""H"": 1.0}",502.307,#FFFFFF,hexagonal,"{6,34,40,44,47,49,52}",3246.0
Hydroxylbastnasite-(Ce),Ce(CO3)(OH),"{""Ce"": 1.0, ""C"": 1.0, ""O"": 4.0, ""H"": 1.0}",217.135,#FFFFFF,hexagonal,"{19,23,26,31,34,35,36,40}",3047.0
Hydroxylbastnasite-(La),La(CO3)(OH),"{""La"": 1.0, ""C"": 1.0, ""O"": 4.0, ""H"": 1.0}",215.925,#FFFFFF,hexagonal,{35},726.0
Hydroxylbastnasite-(Nd),Nd(CO3)(OH),"{""Nd"": 1.0, ""C"": 1.0, ""O"": 4.0, ""H"": 1.0}",221.255,#FFFFFF,hexagonal,"{34,35,36,48}",1652.0
Hydroxylborite,Mg3(BO3)(OH)3,"{""Mg"": 3.0, ""B"": 1.0, ""O"": 6.0, ""H"": 3.0}",182.743,#FFFFFF,hexagonal,{23},398.0
Hydroxylchondrodite,Mg5(SiO4)2(OH)2,"{""Mg"": 5.0, ""Si"": 2.0, ""O"": 10.0, ""H"": 2.0}",339.701,#FFFFFF,monoclinic,{35},726.0
Hydroxylclinohumite,Mg9(SiO4)4(OH)2,"{""Mg"": 9.0, ""Si"": 4.0, ""O"": 18.0, ""H"": 2.0}",621.083,#FFFFFF,monoclinic,"{31,35,40}",1401.0
Hydroxyledgrewite,Ca9(SiO4)4(OH)2,"{""Ca"": 9.0, ""Si"": 4.0, ""O"": 18.0, ""H"": 2.0}",763.04,#FFFFFF,monoclinic,{9},127.0
Hydroxylhedyphane,Ca2Pb3(AsO4)3(OH),"{""Ca"": 2.0, ""Pb"": 3.0, ""As"": 3.0, ""O"": 13.0, ""H"": 1.0}",1135.517,#FFFFFF,hexagonal,{32},412.0
Hydroxylherderite,CaBe(PO4)(OH),"{""Ca"": 1.0, ""Be"": 1.0, ""P"": 1.0, ""O"": 5.0, ""H"": 1.0}",161.0672,#FFFFFF,monoclinic,{34},564.0
Hydroxylpyromorphite,Pb5(PO4)3(OH),"{""Pb"": 5.0, ""P"": 3.0, ""O"": 13.0, ""H"": 1.0}",1337.917,#FFFFFF,hexagonal,{47},1998.0
Hydroxylwagnerite,Mg2(PO4)(OH),"{""Mg"": 2.0, ""P"": 1.0, ""O"": 5.0, ""H"": 1.0}",160.587,#FFFFFF,monoclinic,"{34,39}",634.0
Hydroxymcglassonite-(K),KSr4Si8O20(OH)·8H2O,"{""K"": 1.0, ""Sr"": 4.0, ""Si"": 8.0, ""O"": 29.0, ""H"": 17.0}",1095.365,#FFFFFF,tetragonal,{32},412.0
Hylbrownite,Na3MgP3O10·12H2O,"{""Na"": 3.0, ""Mg"": 1.0, ""P"": 3.0, ""O"": 22.0, ""H"": 24.0}",562.367,#FFFFFF,monoclinic,{34},564.0
Hypercinnabar,HgS,"{""Hg"": 1.0, ""S"": 1.0}",232.65,#A9A9A9,hexagonal,{33},797.0
Hyrslite,Pb8As10Sb6S32,"{""Pb"": 8.0, ""As"": 10.0, ""Sb"": 6.0, ""S"": 32.0}",4163.3,#708090,monoclinic,{33},797.0
Ianthinite,U4+2(UO2)4O6(OH)4·9H2O,"{""U"": 6.0, ""O"": 27.0, ""H"": 22.0}",1882.329,#ADFF2F,orthorhombic,"{27,47}",2007.0
Ice,H2O,"{""H"": 2.0, ""O"": 1.0}",18.015,#FFFFFF,unknown,"{1,2,3,5,18,49}",246.0
Ichnusaite,Th(MoO4)2·3H2O,"{""Th"": 1.0, ""Mo"": 2.0, ""O"": 11.0, ""H"": 6.0}",605.977,#FFFFFF,monoclinic,{47},1998.0
Icosahedrite,Al63Cu24Fe13,"{""Al"": 63.0, ""Cu"": 24.0, ""Fe"": 13.0}",3950.955,#00BFFF,unknown,{6},205.0
Idaite,Cu3FeS4,"{""Cu"": 3.0, ""Fe"": 1.0, ""S"": 4.0}",374.723,#DAA520,tetragonal,"{6,33}",1002.0
Idrialite,C22H14,"{""C"": 22.0, ""H"": 14.0}",278.354,#FFFFFF,orthorhombic,"{14,50,54}",568.0
Igelstromite,Fe3+(SbPb)O4,"{""Fe"": 1.0, ""Sb"": 1.0, ""Pb"": 1.0, ""O"": 4.0}",448.801,#556B2F,tetragonal,{32},412.0
Iimoriite-(Y),Y2(SiO4)(CO3),"{""Y"": 2.0, ""Si"": 1.0, ""O"": 7.0, ""C"": 1.0}",329.901,#FFFFFF,triclinic,"{19,34}",707.0
Ikaite,Ca(CO3)·6H2O,"{""Ca"": 1.0, ""C"": 1.0, ""O"": 9.0, ""H"": 12.0}",208.176,#FFFFFF,monoclinic,{18},4.0
Ikunolite,Bi4S3,"{""Bi"": 4.0, ""S"": 3.0}",932.1,#A9A9A9,hexagonal,{33},797.0
Ilinskite,NaCu5O2(Se4+O3)2Cl3,"{""Na"": 1.0, ""Cu"": 5.0, ""O"": 8.0, ""Se"": 2.0, ""Cl"": 3.0}",733.004,#FFFFFF,orthorhombic,{45},424.0
Ilmenite,Fe2+Ti4+O3,"{""Fe"": 1.0, ""Ti"": 1.0, ""O"": 3.0}",151.709,#8B4513,hexagonal,"{4,5,6,7,8,30,35,36,38,40,41,49,50,54}",2622.0
Iltisite,HgAgSCl,"{""Hg"": 1.0, ""Ag"": 1.0, ""S"": 1.0, ""Cl"": 1.0}",375.97,#A9A9A9,hexagonal,"{33,47}",2795.0
Ilvaite,CaFe3+Fe2+2O(Si2O7)(OH),"{""Ca"": 1.0, ""Fe"": 3.0, ""O"": 9.0, ""Si"": 2.0, ""H"": 1.0}",408.782,#556B2F,monoclinic,"{31,40}",675.0
Imandrite,Na12Ca3Fe3+2Si12O36,"{""Na"": 12.0, ""Ca"": 3.0, ""Fe"": 2.0, ""Si"": 12.0, ""O"": 36.0}",1420.788,#556B2F,orthorhombic,{35},726.0
Imayoshiite,Ca3Al(CO3)[B(OH)4](OH)6·12H2O,"{""Ca"": 3.0, ""Al"": 1.0, ""C"": 1.0, ""O"": 25.0, ""B"": 1.0, ""H"": 34.0}",604.284,#FFFFFF,hexagonal,{13},67.0
Imiterite,Ag2HgS2,"{""Ag"": 2.0, ""Hg"": 1.0, ""S"": 2.0}",480.45,#A9A9A9,monoclinic,{33},797.0
Imogolite,Al2SiO3(OH)4,"{""Al"": 2.0, ""Si"": 1.0, ""O"": 7.0, ""H"": 4.0}",198.074,#FFFFFF,unknown,"{9,47,48}",2196.0
Inaglyite,PbCu3Ir8S16,"{""Pb"": 1.0, ""Cu"": 3.0, ""Ir"": 8.0, ""S"": 16.0}",2448.558,#708090,hexagonal,"{7,12,26,33}",1299.0
Incomsartorite,Tl6Pb144As246S516,"{""Tl"": 6.0, ""Pb"": 144.0, ""As"": 246.0, ""S"": 516.0}",66036.852,#708090,monoclinic,{33},797.0
Inderborite,CaMg[B3O3(OH)5]2(H2O)4·2H2O,"{""Ca"": 1.0, ""Mg"": 1.0, ""B"": 6.0, ""O"": 22.0, ""H"": 22.0}",503.397,#FFFFFF,monoclinic,{25},210.0
Inderite,Mg[B3O3(OH)5](H2O)4·H2O,"{""Mg"": 1.0, ""B"": 3.0, ""O"": 13.0, ""H"": 15.0}",279.842,#FFFFFF,monoclinic,"{24,25}",284.0
Indialite,Mg2Al3(AlSi5)O18,"{""Mg"": 2.0, ""Al"": 4.0, ""Si"": 5.0, ""O"": 18.0}",584.945,#FFFFFF,hexagonal,"{6,45,50,54}",1136.0
Indigirite,Mg2Al2(CO3)4(OH)2·15H2O,"{""Mg"": 2.0, ""Al"": 2.0, ""C"": 4.0, ""O"": 29.0, ""H"": 32.0}",646.845,#FFFFFF,unknown,{47},1998.0
Ingodite,Bi2TeS,"{""Bi"": 2.0, ""Te"": 1.0, ""S"": 1.0}",577.62,#A9A9A9,hexagonal,{33},797.0
Insizwaite,PtBi2,"{""Pt"": 1.0, ""Bi"": 2.0}",613.04,#D2B48C,cubic,"{33,37}",932.0
Interliveingite,AgPb18As25S56,"{""Ag"": 1.0, ""Pb"": 18.0, ""As"": 25.0, ""S"": 56.0}",7505.88,#708090,monoclinic,{},1.0
Inyoite,CaB3O3(OH)5·4H2O,"{""Ca"": 1.0, ""B"": 3.0, ""O"": 12.0, ""H"": 13.0}",277.6,#FFFFFF,monoclinic,"{24,25}",284.0
Iodargyrite,AgI,"{""Ag"": 1.0, ""I"": 1.0}",234.77,#C0C0C0,hexagonal,{47},1998.0
Iowaite,Mg6Fe3+2(OH)16Cl2·4H2O,"{""Mg"": 6.0, ""Fe"": 2.0, ""O"": 20.0, ""H"": 24.0, ""Cl"": 2.0}",672.592,#556B2F,hexagonal,"{13,38,47}",2173.0
Iquiqueite,K3Na4Mg(CrO4)B24O39(OH)·12H2O,"{""K"": 3.0, ""Na"": 4.0, ""Mg"": 1.0, ""Cr"": 1.0, ""O"": 56.0, ""B"": 24.0, ""H"": 25.0}",1466.139,#FFFFFF,hexagonal,{25},210.0
Iranite,CuPb10(CrO4)6(SiO4)2(OH)2,"{""Cu"": 1.0, ""Pb"": 10.0, ""Cr"": 6.0, ""O"": 34.0, ""Si"": 2.0, ""H"": 2.0}",3049.674,#FFFFFF,triclinic,{47},1998.0
Irarsite,IrAsS,"{""Ir"": 1.0, ""As"": 1.0, ""S"": 1.0}",299.202,#FFD700,cubic,"{6,37}",340.0
Irhtemite,Ca4Mg(AsO4)2(AsO3OH)2·4H2O,"{""Ca"": 4.0, ""Mg"": 1.0, ""As"": 4.0, ""O"": 20.0, ""H"": 10.0}",814.365,#FFFFFF,monoclinic,{47},1998.0
Iridarsenite,IrAs2,"{""Ir"": 1.0, ""As"": 2.0}",342.064,#808080,monoclinic,"{26,33,36,38}",1446.0
Iridium,Ir,"{""Ir"": 1.0}",192.22,#FFFFFF,cubic,"{26,36,37,38}",784.0
Iriginite,(UO2)Mo6+2O7·3H2O,"{""U"": 1.0, ""O"": 12.0, ""Mo"": 2.0, ""H"": 6.0}",627.966,#FFFFFF,orthorhombic,"{47,55}",2262.0
Iron,Fe,"{""Fe"": 1.0}",55.845,#8B4513,cubic,"{1,3,4,5,6,7,8,11,36,38,50,53,54}",1691.0
Irtyshite,Na2Ta4O11,"{""Na"": 2.0, ""Ta"": 4.0, ""O"": 11.0}",945.769,#FFFFFF,hexagonal,{34},564.0
Iskandarovite,Sb6O7(SO4)2,"{""Sb"": 6.0, ""O"": 15.0, ""S"": 2.0}",1034.665,#FFFF00,orthorhombic,{54},234.0
Isoclasite,Ca2(PO4)(OH)·2H2O,"{""Ca"": 2.0, ""P"": 1.0, ""O"": 7.0, ""H"": 5.0}",228.163,#FFFFFF,unknown,{47},1998.0
Isocubanite,CuFe2S3,"{""Cu"": 1.0, ""Fe"": 2.0, ""S"": 3.0}",271.416,#DAA520,cubic,"{6,9,12,15,28,33}",1300.0
Isoferroplatinum,Pt3Fe,"{""Pt"": 3.0, ""Fe"": 1.0}",641.085,#8B4513,cubic,"{7,26,37}",508.0
Isokite,CaMg(PO4)F,"{""Ca"": 1.0, ""Mg"": 1.0, ""P"": 1.0, ""O"": 4.0, ""F"": 1.0}",178.351,#FFFFFF,monoclinic,"{34,36,47}",2853.0
Isolueshite,NaNbO3,"{""Na"": 1.0, ""Nb"": 1.0, ""O"": 3.0}",163.893,#FFFFFF,cubic,{35},726.0
Isomertieite,Pd11Sb2As2,"{""Pd"": 11.0, ""Sb"": 2.0, ""As"": 2.0}",1563.984,#808080,cubic,"{33,37}",932.0
Isselite,Cu6(SO4)(OH)10(H2O)4·H2O,"{""Cu"": 6.0, ""S"": 1.0, ""O"": 19.0, ""H"": 20.0}",737.477,#FFFFFF,orthorhombic,{47},1998.0
Itelmenite,Na2CuMg2(SO4)4,"{""Na"": 2.0, ""Cu"": 1.0, ""Mg"": 2.0, ""S"": 4.0, ""O"": 16.0}",542.36,#FFFFFF,orthorhombic,{45},424.0
Itoigawaite,SrAl2Si2O7(OH)2·H2O,"{""Sr"": 1.0, ""Al"": 2.0, ""Si"": 2.0, ""O"": 10.0, ""H"": 4.0}",361.776,#FFFFFF,monoclinic,{39},70.0
Itoite,Pb3GeO2(SO4)2(OH)2,"{""Pb"": 3.0, ""Ge"": 1.0, ""O"": 12.0, ""S"": 2.0, ""H"": 2.0}",952.354,#FFFFFF,orthorhombic,"{47,57}",2047.0
Itsiite,Ba2Ca(BSi2O7)2,"{""Ba"": 2.0, ""Ca"": 1.0, ""B"": 2.0, ""Si"": 4.0, ""O"": 14.0}",672.684,#FFFFFF,tetragonal,{32},412.0
Ivanyukite-Cu,Cu[Ti4O2(OH)2(SiO4)3]·7H2O,"{""Cu"": 1.0, ""Ti"": 4.0, ""O"": 23.0, ""H"": 16.0, ""Si"": 3.0}",723.374,#FFFFFF,cubic,{35},726.0
Ivanyukite-K,K2[Ti4O2(OH)2(SiO4)3]·9H2O,"{""K"": 2.0, ""Ti"": 4.0, ""O"": 25.0, ""H"": 20.0, ""Si"": 3.0}",774.054,#FFFFFF,cubic,{35},726.0
Ivanyukite-Na,Na2[Ti4O2(OH)2(SiO4)3]·6H2O,"{""Na"": 2.0, ""Ti"": 4.0, ""O"": 22.0, ""H"": 14.0, ""Si"": 3.0}",687.793,#FFFFFF,hexagonal,{35},726.0
Ivsite,Na3H(SO4)2,"{""Na"": 3.0, ""H"": 1.0, ""S"": 2.0, ""O"": 8.0}",262.09,#FFFFFF,monoclinic,"{45,47}",2422.0
Iwashiroite-(Y),YTaO4,"{""Y"": 1.0, ""Ta"": 1.0, ""O"": 4.0}",333.852,#FFFFFF,monoclinic,{34},564.0
Ixiolite-(Fe2+),(Ta2/3Fe2+1/3)O2,"{""Ta"": 2.0, ""Fe"": 1.0, ""O"": 2.0}",449.743,#8B4513,orthorhombic,{},1.0
Jachymovite,(UO2)8(SO4)(OH)14·13H2O,"{""U"": 8.0, ""O"": 47.0, ""S"": 1.0, ""H"": 40.0}",2728.573,#FFFFFF,monoclinic,"{47,55}",2262.0
Jacquesdietrichite,Cu2BO(OH)5,"{""Cu"": 2.0, ""B"": 1.0, ""O"": 6.0, ""H"": 5.0}",238.936,#FFFFFF,orthorhombic,{23},398.0
Jacutingaite,Pt2HgSe3,"{""Pt"": 2.0, ""Hg"": 1.0, ""Se"": 3.0}",827.663,#FFFFFF,hexagonal,{33},797.0
Jadarite,LiNaB3SiO7(OH),"{""Li"": 1.0, ""Na"": 1.0, ""B"": 3.0, ""Si"": 1.0, ""O"": 8.0, ""H"": 1.0}",219.445,#FFFFFF,monoclinic,{25},210.0
Jadeite,NaAlSi2O6,"{""Na"": 1.0, ""Al"": 1.0, ""Si"": 2.0, ""O"": 6.0}",202.136,#FFFFFF,monoclinic,"{6,39,40}",594.0
Jaffeite,Ca6Si2O7(OH)6,"{""Ca"": 6.0, ""Si"": 2.0, ""O"": 13.0, ""H"": 6.0}",510.673,#FFFFFF,hexagonal,{31},356.0
Jagowerite,BaAl2(PO4)2(OH)2,"{""Ba"": 1.0, ""Al"": 2.0, ""P"": 2.0, ""O"": 10.0, ""H"": 2.0}",415.248,#FFFFFF,triclinic,{23},398.0
Jagueite,Cu2Pd3Se4,"{""Cu"": 2.0, ""Pd"": 3.0, ""Se"": 4.0}",762.236,#00BFFF,monoclinic,{33},797.0
Jahnsite-(CaFeMg),CaFe2+Mg2Fe3+2(PO4)4(OH)2·8H2O,"{""Ca"": 1.0, ""Fe"": 3.0, ""Mg"": 2.0, ""P"": 4.0, ""O"": 26.0, ""H"": 18.0}",814.237,#556B2F,monoclinic,"{21,22,34,47,50}",3161.0
Jahnsite-(NaFeMg),NaFe3+Mg2Fe3+2(PO4)4(OH)2·8H2O,"{""Na"": 1.0, ""Fe"": 3.0, ""Mg"": 2.0, ""P"": 4.0, ""O"": 26.0, ""H"": 18.0}",797.149,#556B2F,monoclinic,{34},564.0
Jaipurite,CoS,"{""Co"": 1.0, ""S"": 1.0}",90.993,#A9A9A9,hexagonal,{33},797.0
Jakobssonite,CaAlF5,"{""Ca"": 1.0, ""Al"": 1.0, ""F"": 5.0}",162.05,#FFFFFF,monoclinic,{45},424.0
Jalpaite,Ag3CuS2,"{""Ag"": 3.0, ""Cu"": 1.0, ""S"": 2.0}",451.276,#A9A9A9,tetragonal,{33},797.0
Jamesonite,Pb4FeSb6S14,"{""Pb"": 4.0, ""Fe"": 1.0, ""Sb"": 6.0, ""S"": 14.0}",2064.045,#DAA520,monoclinic,"{33,40}",1116.0
Jarandolite,CaB3O4(OH)3,"{""Ca"": 1.0, ""B"": 3.0, ""O"": 7.0, ""H"": 3.0}",187.525,#FFFFFF,monoclinic,{25},210.0
Jarosite,KFe3+3(SO4)2(OH)6,"{""K"": 1.0, ""Fe"": 3.0, ""S"": 2.0, ""O"": 14.0, ""H"": 6.0}",500.787,#556B2F,hexagonal,"{45,46,47,49}",2551.0
Jasmundite,Ca11O2(SiO4)4S,"{""Ca"": 11.0, ""O"": 18.0, ""Si"": 4.0, ""S"": 1.0}",873.24,#FFFFFF,tetragonal,{31},356.0
Jasrouxite,Ag16Pb4(Sb25As15)Σ40S72,"{""Ag"": 16.0, ""Pb"": 4.0, ""Sb"": 1000.0, ""As"": 600.0, ""S"": 72.0}",171576.24,#708090,triclinic,{33},797.0
Jaszczakite,[Bi3S3][AuS2],"{""Bi"": 3.0, ""S"": 5.0, ""Au"": 1.0}",984.21,#A9A9A9,orthorhombic,{33},797.0
Javorieite,KFeCl3,"{""K"": 1.0, ""Fe"": 1.0, ""Cl"": 3.0}",201.293,#8B4513,orthorhombic,{47},1998.0
Jeankempite,Ca5(AsO4)2(AsO3OH)2(H2O)7,"{""Ca"": 5.0, ""As"": 4.0, ""O"": 23.0, ""H"": 16.0}",884.183,#FFFFFF,triclinic,{47},1998.0
Jedwabite,Fe7Ta3,"{""Fe"": 7.0, ""Ta"": 3.0}",933.765,#8B4513,hexagonal,{26},250.0
Jeffbenite,Mg3Al2Si3O12,"{""Mg"": 3.0, ""Al"": 2.0, ""Si"": 3.0, ""O"": 12.0}",403.122,#FFFFFF,tetragonal,{36},291.0
Jennite,Ca9(Si3O9)2(OH)6·8H2O,"{""Ca"": 9.0, ""Si"": 6.0, ""O"": 32.0, ""H"": 22.0}",1063.356,#FFFFFF,triclinic,"{31,47,51}",2482.0
Jensenite,Cu2+3Te6+O6·2H2O,"{""Cu"": 3.0, ""Te"": 1.0, ""O"": 8.0, ""H"": 4.0}",450.262,#FFFFFF,monoclinic,{47},1998.0
Jentschite,TlPbAs2SbS6,"{""Tl"": 1.0, ""Pb"": 1.0, ""As"": 2.0, ""Sb"": 1.0, ""S"": 6.0}",875.544,#708090,monoclinic,"{23,33}",1195.0
Jeremejevite,Al6(BO3)5F3,"{""Al"": 6.0, ""B"": 5.0, ""O"": 15.0, ""F"": 3.0}",512.921,#FFFFFF,hexagonal,{22},247.0
Jervisite,NaSc3+Si2O6,"{""Na"": 1.0, ""Sc"": 1.0, ""Si"": 2.0, ""O"": 6.0}",220.11,#FFFFFF,monoclinic,{34},564.0
Jezekite,Na8[(UO2)(CO3)3](SO4)2·3H2O,"{""Na"": 8.0, ""U"": 1.0, ""O"": 22.0, ""C"": 3.0, ""S"": 2.0, ""H"": 6.0}",880.129,#FFFFFF,hexagonal,"{47,55}",2262.0
Jianmuite,ZrTi4+Ti3+5Al3O16,"{""Zr"": 1.0, ""Ti"": 6.0, ""Al"": 3.0, ""O"": 16.0}",715.356,#FFFFFF,tetragonal,{},1.0
Jimkrieghite,Ca(C2H3O3)2,"{""Ca"": 1.0, ""C"": 4.0, ""H"": 6.0, ""O"": 6.0}",190.164,#FFFFFF,orthorhombic,{53},117.0
Jimthompsonite,Mg5Si6O16(OH)2,"{""Mg"": 5.0, ""Si"": 6.0, ""O"": 18.0, ""H"": 2.0}",580.033,#FFFFFF,orthorhombic,"{6,40}",524.0
Jingsuiite,TiB2,"{""Ti"": 1.0, ""B"": 2.0}",69.487,#FFFFFF,hexagonal,{38},108.0
Jingwenite-(Y),YAlV4+(SiO4)O2(OH)2,"{""Y"": 1.0, ""Al"": 1.0, ""V"": 1.0, ""Si"": 1.0, ""O"": 8.0, ""H"": 2.0}",324.923,#FFFFFF,monoclinic,{22},247.0
Jinshajiangite,BaNaFe2+4Ti2(Si2O7)2O2(OH)2F,"{""Ba"": 1.0, ""Na"": 1.0, ""Fe"": 4.0, ""Ti"": 2.0, ""Si"": 4.0, ""O"": 18.0, ""H"": 2.0, ""F"": 1.0}",900.77,#556B2F,monoclinic,{35},726.0
Joanneumite,Cu(C3N3O3H2)2(NH3)2,"{""Cu"": 1.0, ""C"": 6.0, ""N"": 8.0, ""O"": 6.0, ""H"": 10.0}",353.742,#FFFFFF,unknown,{52},72.0
Joaquinite-(Ce),NaBa2Fe2+Ti2Ce2(Si4O12)2O2(OH)·H2O,"{""Na"": 1.0, ""Ba"": 2.0, ""Fe"": 1.0, ""Ti"": 2.0, ""Ce"": 2.0, ""Si"": 8.0, ""O"": 28.0, ""H"": 3.0}",1405.145,#556B2F,monoclinic,"{23,35,40}",1443.0
Joesmithite,Pb2+Ca2(Mg3Fe3+2)(Si6Be2)O22(OH)2,"{""Pb"": 1.0, ""Ca"": 2.0, ""Mg"": 3.0, ""Fe"": 2.0, ""Si"": 6.0, ""Be"": 2.0, ""O"": 24.0, ""H"": 2.0}",1044.4874,#556B2F,monoclinic,{32},412.0
Johachidolite,CaAlB3O7,"{""Ca"": 1.0, ""Al"": 1.0, ""B"": 3.0, ""O"": 7.0}",211.483,#FFFFFF,orthorhombic,{35},726.0
Johannite,Cu(UO2)2(SO4)2(OH)2·8H2O,"{""Cu"": 1.0, ""U"": 2.0, ""O"": 22.0, ""S"": 2.0, ""H"": 18.0}",973.848,#FFFFFF,triclinic,"{47,55}",2262.0
Johillerite,NaCuMgMg2(AsO4)3,"{""Na"": 1.0, ""Cu"": 1.0, ""Mg"": 3.0, ""As"": 3.0, ""O"": 12.0}",576.205,#FFFFFF,monoclinic,"{46,47,56}",2193.0
Johnbaumite,Ca5(AsO4)3(OH),"{""Ca"": 5.0, ""As"": 3.0, ""O"": 13.0, ""H"": 1.0}",634.151,#FFFFFF,monoclinic,"{32,47}",2410.0
Johnkoivulaite,Cs[Be2B]Mg2Si6O18,"{""Cs"": 1.0, ""Be"": 2.0, ""B"": 1.0, ""Mg"": 2.0, ""Si"": 6.0, ""O"": 18.0}",666.8464,#FFFFFF,hexagonal,{34},564.0
Johnsomervilleite,Na3CaFe2+11(PO4)9,"{""Na"": 3.0, ""Ca"": 1.0, ""Fe"": 11.0, ""P"": 9.0, ""O"": 36.0}",1578.073,#556B2F,hexagonal,"{5,34,40}",977.0
Johntomaite,BaFe2+2Fe3+2(PO4)3(OH)3,"{""Ba"": 1.0, ""Fe"": 4.0, ""P"": 3.0, ""O"": 15.0, ""H"": 3.0}",696.641,#556B2F,monoclinic,{34},564.0
Joliotite,(UO2)(CO3)·2H2O,"{""U"": 1.0, ""O"": 7.0, ""C"": 1.0, ""H"": 4.0}",366.066,#FFFFFF,orthorhombic,{47},1998.0
Jolliffeite,NiAsSe,"{""Ni"": 1.0, ""As"": 1.0, ""Se"": 1.0}",212.586,#7FFF00,cubic,{33},797.0
Jonlarsenite,Al4Cu9,"{""Al"": 4.0, ""Cu"": 9.0}",679.842,#00BFFF,cubic,{},1.0
Jordanite,Pb14As6S23,"{""Pb"": 14.0, ""As"": 6.0, ""S"": 23.0}",4087.712,#708090,monoclinic,"{11,12,33}",962.0
Jordisite,MoS2,"{""Mo"": 1.0, ""S"": 2.0}",160.07,#A9A9A9,unknown,{12},129.0
Jorgensenite,Na2Sr14Na2Al12F64(OH)4,"{""Na"": 4.0, ""Sr"": 14.0, ""Al"": 12.0, ""F"": 64.0, ""O"": 4.0, ""H"": 4.0}",2926.324,#FFFFFF,monoclinic,{23},398.0
Joseite-A,Bi4TeS2,"{""Bi"": 4.0, ""Te"": 1.0, ""S"": 2.0}",1027.64,#A9A9A9,unknown,{33},797.0
Joseite-B,Bi4Te2S,"{""Bi"": 4.0, ""Te"": 2.0, ""S"": 1.0}",1123.18,#A9A9A9,unknown,"{31,33}",1153.0
Joteite,Ca2CuAl(AsO4)[AsO3(OH)]2(OH)2·5H2O,"{""Ca"": 2.0, ""Cu"": 1.0, ""Al"": 1.0, ""As"": 3.0, ""O"": 19.0, ""H"": 14.0}",713.543,#FFFFFF,triclinic,{47},1998.0
Juabite,CaCu10(Te4+O3)4(AsO4)4(OH)2·4H2O,"{""Ca"": 1.0, ""Cu"": 10.0, ""Te"": 4.0, ""O"": 34.0, ""As"": 4.0, ""H"": 10.0}",2039.672,#FFFFFF,triclinic,{47},1998.0
Juangodoyite,Na2Cu(CO3)2,"{""Na"": 2.0, ""Cu"": 1.0, ""C"": 2.0, ""O"": 6.0}",229.542,#FFFFFF,monoclinic,{47},1998.0